  ABINIT 9.10.3
  
-instrng: 43 lines of input have been read from file mos2_ecut_k.abi
 
 
--- !COMMENT
src_file: m_dtfil.F90
src_line: 1441
message: |
    Output file: mos2_ecut_k.abo already exists.
...
 
 
--- !COMMENT
src_file: m_dtfil.F90
src_line: 1465
message: |
    Renaming old: mos2_ecut_k.abo to: mos2_ecut_k.abo0001
...
 

.Version 9.10.3 of ABINIT 
.(MPI version, prepared for a x86_64_linux_intel2021.6 computer) 

.Copyright (C) 1998-2022 ABINIT group . 
 ABINIT comes with ABSOLUTELY NO WARRANTY.
 It is free software, and you are welcome to redistribute it
 under certain conditions (GNU General Public License,
 see ~abinit/COPYING or http://www.gnu.org/copyleft/gpl.txt).

 ABINIT is a project of the Universite Catholique de Louvain,
 Corning Inc. and other collaborators, see ~abinit/doc/developers/contributors.txt .
 Please read https://docs.abinit.org/theory/acknowledgments for suggested
 acknowledgments of the ABINIT effort.
 For more information, see https://www.abinit.org .

.Starting date : Wed  7 May 2025.
- ( at 09h16 )
  
 
 ++++++++++++++++++++++++++++++++++++++++++++++++++++++++++++++++++++++++++++++
 
 === Build Information === 
  Version       : 9.10.3
  Build target  : x86_64_linux_intel2021.6
  Build date    : 20240126
 
 === Compiler Suite === 
  C compiler       : intel2021.6
  C++ compiler     : gnu2021.6
  Fortran compiler : intel2021.6
  CFLAGS           : -g -O2
  CXXFLAGS         : -g -O2 -mtune=native -march=native
  FCFLAGS          : -g -extend-source -nofpscomp     -I/shared/ucl/apps/NetCDF/4.9.2-in ...
  FC_LDFLAGS       :   -static-intel -static-libgcc
 
 === Optimizations === 
  Debug level        : basic
  Optimization level : standard
  Architecture       : intel_xeon
 
 === Multicore === 
  Parallel build : /shared/ucl/apps/intel/2020/impi/2019.6.166/intel64
  Parallel I/O   : 
  openMP support : 
  GPU support    : 
 
 === Connectors / Fallbacks === 
  LINALG flavor  : mkl
  FFT flavor     : dfti
  HDF5           : yes
  NetCDF         : yes
  NetCDF Fortran : yes
  LibXC          : yes
  Wannier90      : no
 
 === Experimental features === 
  Exports             : 
  GW double-precision : 
 
 ++++++++++++++++++++++++++++++++++++++++++++++++++++++++++++++++++++++++++++++
 

 ++++++++++++++++++++++++++++++++++++++++++++++++++++++++++++++++++++++++++++++
 Default optimizations:
   -O3


 Optimizations for 43_ptgroups:
   -O0


 ++++++++++++++++++++++++++++++++++++++++++++++++++++++++++++++++++++++++++++++


 ++++++++++++++++++++++++++++++++++++++++++++++++++++++++++++++++++++++++++++++
 CPP options activated during the build:

                  CC_INTEL                   CXX_GNU                  FC_INTEL
 
                 HAVE_DFTI HAVE_FC_ALLOCATABLE_DT...             HAVE_FC_ASYNC
 
  HAVE_FC_COMMAND_ARGUMENT      HAVE_FC_COMMAND_LINE        HAVE_FC_CONTIGUOUS
 
           HAVE_FC_CPUTIME              HAVE_FC_EXIT             HAVE_FC_FLUSH
 
             HAVE_FC_GAMMA   HAVE_FC_IEEE_ARITHMETIC   HAVE_FC_IEEE_EXCEPTIONS
 
             HAVE_FC_IOMSG     HAVE_FC_ISO_C_BINDING  HAVE_FC_ISO_FORTRAN_2008
 
        HAVE_FC_LONG_LINES        HAVE_FC_MOVE_ALLOC  HAVE_FC_ON_THE_FLY_SHAPE
 
           HAVE_FC_PRIVATE         HAVE_FC_PROTECTED           HAVE_FC_SHIFTLR
 
         HAVE_FC_STREAM_IO                 HAVE_HDF5             HAVE_HDF5_MPI
 
        HAVE_LIBPAW_ABINIT      HAVE_LIBTETRA_ABINIT                HAVE_LIBXC
 
         HAVE_LINALG_AXPBY        HAVE_LINALG_GEMM3M         HAVE_LINALG_GEMMT
 
  HAVE_LINALG_MKL_IMATCOPY   HAVE_LINALG_MKL_OMATADD  HAVE_LINALG_MKL_OMATCOPY
 
   HAVE_LINALG_MKL_THREADS     HAVE_LINALG_SCALAPACK                  HAVE_MPI
 
                 HAVE_MPI2       HAVE_MPI_IALLGATHER       HAVE_MPI_IALLREDUCE
 
        HAVE_MPI_IALLTOALL       HAVE_MPI_IALLTOALLV           HAVE_MPI_IBCAST
 
         HAVE_MPI_IGATHERV        HAVE_MPI_INTEGER16               HAVE_MPI_IO
 
 HAVE_MPI_TYPE_CREATE_S...               HAVE_NETCDF       HAVE_NETCDF_FORTRAN
 
   HAVE_NETCDF_FORTRAN_MPI           HAVE_NETCDF_MPI             HAVE_OS_LINUX
 
         HAVE_TIMER_ABINIT                                                      
 ++++++++++++++++++++++++++++++++++++++++++++++++++++++++++++++++++++++++++++++

- input  file    -> mos2_ecut_k.abi
- output file    -> mos2_ecut_k.abo
- root for input  files -> mos2_ecut_ki
- root for output files -> mos2_ecut_ko
 
 Netcdf library supports MPI-IO
-instrng: 43 lines of input have been read from file mos2_ecut_k.abi
 
 For atom type 1, psp file is ../persudo/Mo.psp8
 For atom type 2, psp file is ../persudo/S.psp8
  read the values zionpsp= 14.0 , pspcod=   8 , lmax=   2
  read the values zionpsp=  6.0 , pspcod=   8 , lmax=   2
 
 inpspheads: deduce mpsang = 3, n1xccc = 2501.

======================================================= 
 invars1m : enter jdtset= 11
 
 symlatt: the Bravais lattice is hP (primitive hexagonal)
  xred   is defined in input file
 ingeo: takes atomic coordinates from input array xred
 
 symlatt: the Bravais lattice is hP (primitive hexagonal)
 
 symlatt: the Bravais lattice is hP (primitive hexagonal)
 
--- !COMMENT
src_file: m_symfind.F90
src_line: 995
message: |
    The Bravais lattice determined only from the primitive
    vectors, bravais(1)=  6, is more symmetric
    than the real one, iholohedry=  1, obtained by taking into
    account the atomic positions. Start deforming the primitive vector set.
...
 
 
 symlatt: the Bravais lattice is oC (one-face-centered orthorhombic)
 
--- !COMMENT
src_file: m_symfind.F90
src_line: 1004
message: |
    The Bravais lattice determined from modified primitive
    vectors, bravais(1)=  3, has a lower symmetry than before,
    but is still more symmetric than the real one, iholohedry=  1
    obtained by taking into account the atomic positions.
...
 
 
 symlatt: the Bravais lattice is aP (primitive triclinic)
 symspgr: spgroup=   1  P1   (=C1^1)

======================================================= 
 invars1m : enter jdtset= 12
 
 symlatt: the Bravais lattice is hP (primitive hexagonal)
  xred   is defined in input file
 ingeo: takes atomic coordinates from input array xred
 
 symlatt: the Bravais lattice is hP (primitive hexagonal)
 
 symlatt: the Bravais lattice is hP (primitive hexagonal)
 
--- !COMMENT
src_file: m_symfind.F90
src_line: 995
message: |
    The Bravais lattice determined only from the primitive
    vectors, bravais(1)=  6, is more symmetric
    than the real one, iholohedry=  1, obtained by taking into
    account the atomic positions. Start deforming the primitive vector set.
...
 
 
 symlatt: the Bravais lattice is oC (one-face-centered orthorhombic)
 
--- !COMMENT
src_file: m_symfind.F90
src_line: 1004
message: |
    The Bravais lattice determined from modified primitive
    vectors, bravais(1)=  3, has a lower symmetry than before,
    but is still more symmetric than the real one, iholohedry=  1
    obtained by taking into account the atomic positions.
...
 
 
 symlatt: the Bravais lattice is aP (primitive triclinic)
 symspgr: spgroup=   1  P1   (=C1^1)

======================================================= 
 invars1m : enter jdtset= 13
 
 symlatt: the Bravais lattice is hP (primitive hexagonal)
  xred   is defined in input file
 ingeo: takes atomic coordinates from input array xred
 
 symlatt: the Bravais lattice is hP (primitive hexagonal)
 
 symlatt: the Bravais lattice is hP (primitive hexagonal)
 
--- !COMMENT
src_file: m_symfind.F90
src_line: 995
message: |
    The Bravais lattice determined only from the primitive
    vectors, bravais(1)=  6, is more symmetric
    than the real one, iholohedry=  1, obtained by taking into
    account the atomic positions. Start deforming the primitive vector set.
...
 
 
 symlatt: the Bravais lattice is oC (one-face-centered orthorhombic)
 
--- !COMMENT
src_file: m_symfind.F90
src_line: 1004
message: |
    The Bravais lattice determined from modified primitive
    vectors, bravais(1)=  3, has a lower symmetry than before,
    but is still more symmetric than the real one, iholohedry=  1
    obtained by taking into account the atomic positions.
...
 
 
 symlatt: the Bravais lattice is aP (primitive triclinic)
 symspgr: spgroup=   1  P1   (=C1^1)

======================================================= 
 invars1m : enter jdtset= 21
 
 symlatt: the Bravais lattice is hP (primitive hexagonal)
  xred   is defined in input file
 ingeo: takes atomic coordinates from input array xred
 
 symlatt: the Bravais lattice is hP (primitive hexagonal)
 
 symlatt: the Bravais lattice is hP (primitive hexagonal)
 
--- !COMMENT
src_file: m_symfind.F90
src_line: 995
message: |
    The Bravais lattice determined only from the primitive
    vectors, bravais(1)=  6, is more symmetric
    than the real one, iholohedry=  1, obtained by taking into
    account the atomic positions. Start deforming the primitive vector set.
...
 
 
 symlatt: the Bravais lattice is oC (one-face-centered orthorhombic)
 
--- !COMMENT
src_file: m_symfind.F90
src_line: 1004
message: |
    The Bravais lattice determined from modified primitive
    vectors, bravais(1)=  3, has a lower symmetry than before,
    but is still more symmetric than the real one, iholohedry=  1
    obtained by taking into account the atomic positions.
...
 
 
 symlatt: the Bravais lattice is aP (primitive triclinic)
 symspgr: spgroup=   1  P1   (=C1^1)

======================================================= 
 invars1m : enter jdtset= 22
 
 symlatt: the Bravais lattice is hP (primitive hexagonal)
  xred   is defined in input file
 ingeo: takes atomic coordinates from input array xred
 
 symlatt: the Bravais lattice is hP (primitive hexagonal)
 
 symlatt: the Bravais lattice is hP (primitive hexagonal)
 
--- !COMMENT
src_file: m_symfind.F90
src_line: 995
message: |
    The Bravais lattice determined only from the primitive
    vectors, bravais(1)=  6, is more symmetric
    than the real one, iholohedry=  1, obtained by taking into
    account the atomic positions. Start deforming the primitive vector set.
...
 
 
 symlatt: the Bravais lattice is oC (one-face-centered orthorhombic)
 
--- !COMMENT
src_file: m_symfind.F90
src_line: 1004
message: |
    The Bravais lattice determined from modified primitive
    vectors, bravais(1)=  3, has a lower symmetry than before,
    but is still more symmetric than the real one, iholohedry=  1
    obtained by taking into account the atomic positions.
...
 
 
 symlatt: the Bravais lattice is aP (primitive triclinic)
 symspgr: spgroup=   1  P1   (=C1^1)

======================================================= 
 invars1m : enter jdtset= 23
 
 symlatt: the Bravais lattice is hP (primitive hexagonal)
  xred   is defined in input file
 ingeo: takes atomic coordinates from input array xred
 
 symlatt: the Bravais lattice is hP (primitive hexagonal)
 
 symlatt: the Bravais lattice is hP (primitive hexagonal)
 
--- !COMMENT
src_file: m_symfind.F90
src_line: 995
message: |
    The Bravais lattice determined only from the primitive
    vectors, bravais(1)=  6, is more symmetric
    than the real one, iholohedry=  1, obtained by taking into
    account the atomic positions. Start deforming the primitive vector set.
...
 
 
 symlatt: the Bravais lattice is oC (one-face-centered orthorhombic)
 
--- !COMMENT
src_file: m_symfind.F90
src_line: 1004
message: |
    The Bravais lattice determined from modified primitive
    vectors, bravais(1)=  3, has a lower symmetry than before,
    but is still more symmetric than the real one, iholohedry=  1
    obtained by taking into account the atomic positions.
...
 
 
 symlatt: the Bravais lattice is aP (primitive triclinic)
 symspgr: spgroup=   1  P1   (=C1^1)

======================================================= 
 invars1m : enter jdtset= 31
 
 symlatt: the Bravais lattice is hP (primitive hexagonal)
  xred   is defined in input file
 ingeo: takes atomic coordinates from input array xred
 
 symlatt: the Bravais lattice is hP (primitive hexagonal)
 
 symlatt: the Bravais lattice is hP (primitive hexagonal)
 
--- !COMMENT
src_file: m_symfind.F90
src_line: 995
message: |
    The Bravais lattice determined only from the primitive
    vectors, bravais(1)=  6, is more symmetric
    than the real one, iholohedry=  1, obtained by taking into
    account the atomic positions. Start deforming the primitive vector set.
...
 
 
 symlatt: the Bravais lattice is oC (one-face-centered orthorhombic)
 
--- !COMMENT
src_file: m_symfind.F90
src_line: 1004
message: |
    The Bravais lattice determined from modified primitive
    vectors, bravais(1)=  3, has a lower symmetry than before,
    but is still more symmetric than the real one, iholohedry=  1
    obtained by taking into account the atomic positions.
...
 
 
 symlatt: the Bravais lattice is aP (primitive triclinic)
 symspgr: spgroup=   1  P1   (=C1^1)

======================================================= 
 invars1m : enter jdtset= 32
 
 symlatt: the Bravais lattice is hP (primitive hexagonal)
  xred   is defined in input file
 ingeo: takes atomic coordinates from input array xred
 
 symlatt: the Bravais lattice is hP (primitive hexagonal)
 
 symlatt: the Bravais lattice is hP (primitive hexagonal)
 
--- !COMMENT
src_file: m_symfind.F90
src_line: 995
message: |
    The Bravais lattice determined only from the primitive
    vectors, bravais(1)=  6, is more symmetric
    than the real one, iholohedry=  1, obtained by taking into
    account the atomic positions. Start deforming the primitive vector set.
...
 
 
 symlatt: the Bravais lattice is oC (one-face-centered orthorhombic)
 
--- !COMMENT
src_file: m_symfind.F90
src_line: 1004
message: |
    The Bravais lattice determined from modified primitive
    vectors, bravais(1)=  3, has a lower symmetry than before,
    but is still more symmetric than the real one, iholohedry=  1
    obtained by taking into account the atomic positions.
...
 
 
 symlatt: the Bravais lattice is aP (primitive triclinic)
 symspgr: spgroup=   1  P1   (=C1^1)

======================================================= 
 invars1m : enter jdtset= 33
 
 symlatt: the Bravais lattice is hP (primitive hexagonal)
  xred   is defined in input file
 ingeo: takes atomic coordinates from input array xred
 
 symlatt: the Bravais lattice is hP (primitive hexagonal)
 
 symlatt: the Bravais lattice is hP (primitive hexagonal)
 
--- !COMMENT
src_file: m_symfind.F90
src_line: 995
message: |
    The Bravais lattice determined only from the primitive
    vectors, bravais(1)=  6, is more symmetric
    than the real one, iholohedry=  1, obtained by taking into
    account the atomic positions. Start deforming the primitive vector set.
...
 
 
 symlatt: the Bravais lattice is oC (one-face-centered orthorhombic)
 
--- !COMMENT
src_file: m_symfind.F90
src_line: 1004
message: |
    The Bravais lattice determined from modified primitive
    vectors, bravais(1)=  3, has a lower symmetry than before,
    but is still more symmetric than the real one, iholohedry=  1
    obtained by taking into account the atomic positions.
...
 
 
 symlatt: the Bravais lattice is aP (primitive triclinic)
 symspgr: spgroup=   1  P1   (=C1^1)

======================================================= 
 invars1m : enter jdtset= 41
 
 symlatt: the Bravais lattice is hP (primitive hexagonal)
  xred   is defined in input file
 ingeo: takes atomic coordinates from input array xred
 
 symlatt: the Bravais lattice is hP (primitive hexagonal)
 
 symlatt: the Bravais lattice is hP (primitive hexagonal)
 
--- !COMMENT
src_file: m_symfind.F90
src_line: 995
message: |
    The Bravais lattice determined only from the primitive
    vectors, bravais(1)=  6, is more symmetric
    than the real one, iholohedry=  1, obtained by taking into
    account the atomic positions. Start deforming the primitive vector set.
...
 
 
 symlatt: the Bravais lattice is oC (one-face-centered orthorhombic)
 
--- !COMMENT
src_file: m_symfind.F90
src_line: 1004
message: |
    The Bravais lattice determined from modified primitive
    vectors, bravais(1)=  3, has a lower symmetry than before,
    but is still more symmetric than the real one, iholohedry=  1
    obtained by taking into account the atomic positions.
...
 
 
 symlatt: the Bravais lattice is aP (primitive triclinic)
 symspgr: spgroup=   1  P1   (=C1^1)

======================================================= 
 invars1m : enter jdtset= 42
 
 symlatt: the Bravais lattice is hP (primitive hexagonal)
  xred   is defined in input file
 ingeo: takes atomic coordinates from input array xred
 
 symlatt: the Bravais lattice is hP (primitive hexagonal)
 
 symlatt: the Bravais lattice is hP (primitive hexagonal)
 
--- !COMMENT
src_file: m_symfind.F90
src_line: 995
message: |
    The Bravais lattice determined only from the primitive
    vectors, bravais(1)=  6, is more symmetric
    than the real one, iholohedry=  1, obtained by taking into
    account the atomic positions. Start deforming the primitive vector set.
...
 
 
 symlatt: the Bravais lattice is oC (one-face-centered orthorhombic)
 
--- !COMMENT
src_file: m_symfind.F90
src_line: 1004
message: |
    The Bravais lattice determined from modified primitive
    vectors, bravais(1)=  3, has a lower symmetry than before,
    but is still more symmetric than the real one, iholohedry=  1
    obtained by taking into account the atomic positions.
...
 
 
 symlatt: the Bravais lattice is aP (primitive triclinic)
 symspgr: spgroup=   1  P1   (=C1^1)

======================================================= 
 invars1m : enter jdtset= 43
 
 symlatt: the Bravais lattice is hP (primitive hexagonal)
  xred   is defined in input file
 ingeo: takes atomic coordinates from input array xred
 
 symlatt: the Bravais lattice is hP (primitive hexagonal)
 
 symlatt: the Bravais lattice is hP (primitive hexagonal)
 
--- !COMMENT
src_file: m_symfind.F90
src_line: 995
message: |
    The Bravais lattice determined only from the primitive
    vectors, bravais(1)=  6, is more symmetric
    than the real one, iholohedry=  1, obtained by taking into
    account the atomic positions. Start deforming the primitive vector set.
...
 
 
 symlatt: the Bravais lattice is oC (one-face-centered orthorhombic)
 
--- !COMMENT
src_file: m_symfind.F90
src_line: 1004
message: |
    The Bravais lattice determined from modified primitive
    vectors, bravais(1)=  3, has a lower symmetry than before,
    but is still more symmetric than the real one, iholohedry=  1
    obtained by taking into account the atomic positions.
...
 
 
 symlatt: the Bravais lattice is aP (primitive triclinic)
 symspgr: spgroup=   1  P1   (=C1^1)

======================================================= 
 invars1m : enter jdtset= 51
 
 symlatt: the Bravais lattice is hP (primitive hexagonal)
  xred   is defined in input file
 ingeo: takes atomic coordinates from input array xred
 
 symlatt: the Bravais lattice is hP (primitive hexagonal)
 
 symlatt: the Bravais lattice is hP (primitive hexagonal)
 
--- !COMMENT
src_file: m_symfind.F90
src_line: 995
message: |
    The Bravais lattice determined only from the primitive
    vectors, bravais(1)=  6, is more symmetric
    than the real one, iholohedry=  1, obtained by taking into
    account the atomic positions. Start deforming the primitive vector set.
...
 
 
 symlatt: the Bravais lattice is oC (one-face-centered orthorhombic)
 
--- !COMMENT
src_file: m_symfind.F90
src_line: 1004
message: |
    The Bravais lattice determined from modified primitive
    vectors, bravais(1)=  3, has a lower symmetry than before,
    but is still more symmetric than the real one, iholohedry=  1
    obtained by taking into account the atomic positions.
...
 
 
 symlatt: the Bravais lattice is aP (primitive triclinic)
 symspgr: spgroup=   1  P1   (=C1^1)

======================================================= 
 invars1m : enter jdtset= 52
 
 symlatt: the Bravais lattice is hP (primitive hexagonal)
  xred   is defined in input file
 ingeo: takes atomic coordinates from input array xred
 
 symlatt: the Bravais lattice is hP (primitive hexagonal)
 
 symlatt: the Bravais lattice is hP (primitive hexagonal)
 
--- !COMMENT
src_file: m_symfind.F90
src_line: 995
message: |
    The Bravais lattice determined only from the primitive
    vectors, bravais(1)=  6, is more symmetric
    than the real one, iholohedry=  1, obtained by taking into
    account the atomic positions. Start deforming the primitive vector set.
...
 
 
 symlatt: the Bravais lattice is oC (one-face-centered orthorhombic)
 
--- !COMMENT
src_file: m_symfind.F90
src_line: 1004
message: |
    The Bravais lattice determined from modified primitive
    vectors, bravais(1)=  3, has a lower symmetry than before,
    but is still more symmetric than the real one, iholohedry=  1
    obtained by taking into account the atomic positions.
...
 
 
 symlatt: the Bravais lattice is aP (primitive triclinic)
 symspgr: spgroup=   1  P1   (=C1^1)

======================================================= 
 invars1m : enter jdtset= 53
 
 symlatt: the Bravais lattice is hP (primitive hexagonal)
  xred   is defined in input file
 ingeo: takes atomic coordinates from input array xred
 
 symlatt: the Bravais lattice is hP (primitive hexagonal)
 
 symlatt: the Bravais lattice is hP (primitive hexagonal)
 
--- !COMMENT
src_file: m_symfind.F90
src_line: 995
message: |
    The Bravais lattice determined only from the primitive
    vectors, bravais(1)=  6, is more symmetric
    than the real one, iholohedry=  1, obtained by taking into
    account the atomic positions. Start deforming the primitive vector set.
...
 
 
 symlatt: the Bravais lattice is oC (one-face-centered orthorhombic)
 
--- !COMMENT
src_file: m_symfind.F90
src_line: 1004
message: |
    The Bravais lattice determined from modified primitive
    vectors, bravais(1)=  3, has a lower symmetry than before,
    but is still more symmetric than the real one, iholohedry=  1
    obtained by taking into account the atomic positions.
...
 
 
 symlatt: the Bravais lattice is aP (primitive triclinic)
 symspgr: spgroup=   1  P1   (=C1^1)

======================================================= 
 invars1m : enter jdtset= 61
 
 symlatt: the Bravais lattice is hP (primitive hexagonal)
  xred   is defined in input file
 ingeo: takes atomic coordinates from input array xred
 
 symlatt: the Bravais lattice is hP (primitive hexagonal)
 
 symlatt: the Bravais lattice is hP (primitive hexagonal)
 
--- !COMMENT
src_file: m_symfind.F90
src_line: 995
message: |
    The Bravais lattice determined only from the primitive
    vectors, bravais(1)=  6, is more symmetric
    than the real one, iholohedry=  1, obtained by taking into
    account the atomic positions. Start deforming the primitive vector set.
...
 
 
 symlatt: the Bravais lattice is oC (one-face-centered orthorhombic)
 
--- !COMMENT
src_file: m_symfind.F90
src_line: 1004
message: |
    The Bravais lattice determined from modified primitive
    vectors, bravais(1)=  3, has a lower symmetry than before,
    but is still more symmetric than the real one, iholohedry=  1
    obtained by taking into account the atomic positions.
...
 
 
 symlatt: the Bravais lattice is aP (primitive triclinic)
 symspgr: spgroup=   1  P1   (=C1^1)

======================================================= 
 invars1m : enter jdtset= 62
 
 symlatt: the Bravais lattice is hP (primitive hexagonal)
  xred   is defined in input file
 ingeo: takes atomic coordinates from input array xred
 
 symlatt: the Bravais lattice is hP (primitive hexagonal)
 
 symlatt: the Bravais lattice is hP (primitive hexagonal)
 
--- !COMMENT
src_file: m_symfind.F90
src_line: 995
message: |
    The Bravais lattice determined only from the primitive
    vectors, bravais(1)=  6, is more symmetric
    than the real one, iholohedry=  1, obtained by taking into
    account the atomic positions. Start deforming the primitive vector set.
...
 
 
 symlatt: the Bravais lattice is oC (one-face-centered orthorhombic)
 
--- !COMMENT
src_file: m_symfind.F90
src_line: 1004
message: |
    The Bravais lattice determined from modified primitive
    vectors, bravais(1)=  3, has a lower symmetry than before,
    but is still more symmetric than the real one, iholohedry=  1
    obtained by taking into account the atomic positions.
...
 
 
 symlatt: the Bravais lattice is aP (primitive triclinic)
 symspgr: spgroup=   1  P1   (=C1^1)

======================================================= 
 invars1m : enter jdtset= 63
 
 symlatt: the Bravais lattice is hP (primitive hexagonal)
  xred   is defined in input file
 ingeo: takes atomic coordinates from input array xred
 
 symlatt: the Bravais lattice is hP (primitive hexagonal)
 
 symlatt: the Bravais lattice is hP (primitive hexagonal)
 
--- !COMMENT
src_file: m_symfind.F90
src_line: 995
message: |
    The Bravais lattice determined only from the primitive
    vectors, bravais(1)=  6, is more symmetric
    than the real one, iholohedry=  1, obtained by taking into
    account the atomic positions. Start deforming the primitive vector set.
...
 
 
 symlatt: the Bravais lattice is oC (one-face-centered orthorhombic)
 
--- !COMMENT
src_file: m_symfind.F90
src_line: 1004
message: |
    The Bravais lattice determined from modified primitive
    vectors, bravais(1)=  3, has a lower symmetry than before,
    but is still more symmetric than the real one, iholohedry=  1
    obtained by taking into account the atomic positions.
...
 
 
 symlatt: the Bravais lattice is aP (primitive triclinic)
 symspgr: spgroup=   1  P1   (=C1^1)
 invars2: take the default value of fband=  1.25000000E-01
 invars2: take the default value of fband=  1.25000000E-01
 invars2: take the default value of fband=  1.25000000E-01
 invars2: take the default value of fband=  1.25000000E-01
 invars2: take the default value of fband=  1.25000000E-01
 invars2: take the default value of fband=  1.25000000E-01
 invars2: take the default value of fband=  1.25000000E-01
 invars2: take the default value of fband=  1.25000000E-01
 invars2: take the default value of fband=  1.25000000E-01
 invars2: take the default value of fband=  1.25000000E-01
 invars2: take the default value of fband=  1.25000000E-01
 invars2: take the default value of fband=  1.25000000E-01
 invars2: take the default value of fband=  1.25000000E-01
 invars2: take the default value of fband=  1.25000000E-01
 invars2: take the default value of fband=  1.25000000E-01
 invars2: take the default value of fband=  1.25000000E-01
 invars2: take the default value of fband=  1.25000000E-01
 invars2: take the default value of fband=  1.25000000E-01
 LMac pawujat is:            0
 LMac pawujat is:            0
 LMac pawujat is:            0
 LMac pawujat is:            0
 LMac pawujat is:            0
 LMac pawujat is:            0
 LMac pawujat is:            0
 LMac pawujat is:            0
 LMac pawujat is:            0
 LMac pawujat is:            0
 LMac pawujat is:            0
 LMac pawujat is:            0
 LMac pawujat is:            0
 LMac pawujat is:            0
 LMac pawujat is:            0
 LMac pawujat is:            0
 LMac pawujat is:            0
 LMac pawujat is:            0
 For input ecut=  1.000000E+01 best grid ngfft=      18      18     108
       max ecut=  1.007394E+01
 
 ==== FFT mesh ====
  FFT mesh divisions ........................    18   18  108
  Augmented FFT divisions ...................    19   19  108
  FFT algorithm .............................   512
  FFT cache size ............................    16
 getmpw: optimal value of mpw= 1738
 For input ecut=  1.000000E+01 best grid ngfft=      18      18     108
       max ecut=  1.007394E+01
 
 ==== FFT mesh ====
  FFT mesh divisions ........................    18   18  108
  Augmented FFT divisions ...................    19   19  108
  FFT algorithm .............................   512
  FFT cache size ............................    16
 getmpw: optimal value of mpw= 1758
 For input ecut=  1.000000E+01 best grid ngfft=      18      18     108
       max ecut=  1.007394E+01
 
 ==== FFT mesh ====
  FFT mesh divisions ........................    18   18  108
  Augmented FFT divisions ...................    19   19  108
  FFT algorithm .............................   512
  FFT cache size ............................    16
 getmpw: optimal value of mpw= 1768
 For input ecut=  1.500000E+01 best grid ngfft=      24      24     135
       max ecut=  1.550821E+01
 
 ==== FFT mesh ====
  FFT mesh divisions ........................    24   24  135
  Augmented FFT divisions ...................    25   25  135
  FFT algorithm .............................   512
  FFT cache size ............................    16
 getmpw: optimal value of mpw= 3224
 For input ecut=  1.500000E+01 best grid ngfft=      24      24     135
       max ecut=  1.550821E+01
 
 ==== FFT mesh ====
  FFT mesh divisions ........................    24   24  135
  Augmented FFT divisions ...................    25   25  135
  FFT algorithm .............................   512
  FFT cache size ............................    16
 getmpw: optimal value of mpw= 3240
 For input ecut=  1.500000E+01 best grid ngfft=      24      24     135
       max ecut=  1.550821E+01
 
 ==== FFT mesh ====
  FFT mesh divisions ........................    24   24  135
  Augmented FFT divisions ...................    25   25  135
  FFT algorithm .............................   512
  FFT cache size ............................    16
 getmpw: optimal value of mpw= 3240
 For input ecut=  2.000000E+01 best grid ngfft=      24      24     160
       max ecut=  2.005457E+01
 
 ==== FFT mesh ====
  FFT mesh divisions ........................    24   24  160
  Augmented FFT divisions ...................    25   25  160
  FFT algorithm .............................   512
  FFT cache size ............................    16
 getmpw: optimal value of mpw= 4986
 For input ecut=  2.000000E+01 best grid ngfft=      24      24     160
       max ecut=  2.005457E+01
 
 ==== FFT mesh ====
  FFT mesh divisions ........................    24   24  160
  Augmented FFT divisions ...................    25   25  160
  FFT algorithm .............................   512
  FFT cache size ............................    16
 getmpw: optimal value of mpw= 4992
 For input ecut=  2.000000E+01 best grid ngfft=      24      24     160
       max ecut=  2.005457E+01
 
 ==== FFT mesh ====
  FFT mesh divisions ........................    24   24  160
  Augmented FFT divisions ...................    25   25  160
  FFT algorithm .............................   512
  FFT cache size ............................    16
 getmpw: optimal value of mpw= 4992
 For input ecut=  2.500000E+01 best grid ngfft=      30      30     180
       max ecut=  2.798318E+01
 
 ==== FFT mesh ====
  FFT mesh divisions ........................    30   30  180
  Augmented FFT divisions ...................    31   31  180
  FFT algorithm .............................   512
  FFT cache size ............................    16
 getmpw: optimal value of mpw= 6930
 For input ecut=  2.500000E+01 best grid ngfft=      30      30     180
       max ecut=  2.798318E+01
 
 ==== FFT mesh ====
  FFT mesh divisions ........................    30   30  180
  Augmented FFT divisions ...................    31   31  180
  FFT algorithm .............................   512
  FFT cache size ............................    16
 getmpw: optimal value of mpw= 6962
 For input ecut=  2.500000E+01 best grid ngfft=      30      30     180
       max ecut=  2.798318E+01
 
 ==== FFT mesh ====
  FFT mesh divisions ........................    30   30  180
  Augmented FFT divisions ...................    31   31  180
  FFT algorithm .............................   512
  FFT cache size ............................    16
 getmpw: optimal value of mpw= 6980
 For input ecut=  3.000000E+01 best grid ngfft=      30      30     192
       max ecut=  3.138169E+01
 
 ==== FFT mesh ====
  FFT mesh divisions ........................    30   30  192
  Augmented FFT divisions ...................    31   31  192
  FFT algorithm .............................   512
  FFT cache size ............................    16
 getmpw: optimal value of mpw= 9128
 For input ecut=  3.000000E+01 best grid ngfft=      30      30     192
       max ecut=  3.138169E+01
 
 ==== FFT mesh ====
  FFT mesh divisions ........................    30   30  192
  Augmented FFT divisions ...................    31   31  192
  FFT algorithm .............................   512
  FFT cache size ............................    16
 getmpw: optimal value of mpw= 9158
 For input ecut=  3.000000E+01 best grid ngfft=      30      30     192
       max ecut=  3.138169E+01
 
 ==== FFT mesh ====
  FFT mesh divisions ........................    30   30  192
  Augmented FFT divisions ...................    31   31  192
  FFT algorithm .............................   512
  FFT cache size ............................    16
 getmpw: optimal value of mpw= 9160
 For input ecut=  3.500000E+01 best grid ngfft=      32      32     216
       max ecut=  3.565257E+01
 
 ==== FFT mesh ====
  FFT mesh divisions ........................    32   32  216
  Augmented FFT divisions ...................    33   33  216
  FFT algorithm .............................   512
  FFT cache size ............................    16
 getmpw: optimal value of mpw= 11496
 For input ecut=  3.500000E+01 best grid ngfft=      32      32     216
       max ecut=  3.565257E+01
 
 ==== FFT mesh ====
  FFT mesh divisions ........................    32   32  216
  Augmented FFT divisions ...................    33   33  216
  FFT algorithm .............................   512
  FFT cache size ............................    16
 getmpw: optimal value of mpw= 11526
 For input ecut=  3.500000E+01 best grid ngfft=      32      32     216
       max ecut=  3.565257E+01
 
 ==== FFT mesh ====
  FFT mesh divisions ........................    32   32  216
  Augmented FFT divisions ...................    33   33  216
  FFT algorithm .............................   512
  FFT cache size ............................    16
 getmpw: optimal value of mpw= 11518
 
 DATASET   11 : space group P1 (#  1); Bravais aP (primitive triclinic)
 
 getdim_nloc: deduce lmnmax  =  18, lnmax  =   6,
                      lmnmaxso=  18, lnmaxso=   6.
memory: analysis of memory needs
================================================================================
 Values of the parameters that define the memory need for DATASET 11.
     intxc =       0    ionmov =       2      iscf =       7    lmnmax =       6
     lnmax =       6     mgfft =     108  mpssoang =       3    mqgrid =    5381
     natom =       3  nloc_mem =       1    nspden =       1   nspinor =       1
    nsppol =       1      nsym =       1    n1xccc =    2501    ntypat =       2
    occopt =       1   xclevel =       2
-    mband =          14        mffmem =           1         mkmem =           2
       mpw =        1738          nfft =       34992          nkpt =           2
================================================================================
P This job should need less than                      13.039 Mbytes of memory.
  Rough estimation (10% accuracy) of disk space for files :
_ WF disk file :      0.745 Mbytes ; DEN or POT disk file :      0.269 Mbytes.
================================================================================
 
 Biggest array : f_fftgr(disk), with      4.2735 MBytes.
 memana : allocated an array of      4.273 Mbytes, for testing purposes.
 memana: allocated      13.039Mbytes, for testing purposes. 
 The job will continue.
 
 DATASET   12 : space group P1 (#  1); Bravais aP (primitive triclinic)
 
 getdim_nloc: deduce lmnmax  =  18, lnmax  =   6,
                      lmnmaxso=  18, lnmaxso=   6.
memory: analysis of memory needs
================================================================================
 Values of the parameters that define the memory need for DATASET 12.
     intxc =       0    ionmov =       2      iscf =       7    lmnmax =       6
     lnmax =       6     mgfft =     108  mpssoang =       3    mqgrid =    5381
     natom =       3  nloc_mem =       1    nspden =       1   nspinor =       1
    nsppol =       1      nsym =       1    n1xccc =    2501    ntypat =       2
    occopt =       1   xclevel =       2
-    mband =          14        mffmem =           1         mkmem =           8
       mpw =        1758          nfft =       34992          nkpt =           8
================================================================================
P This job should need less than                      15.442 Mbytes of memory.
  Rough estimation (10% accuracy) of disk space for files :
_ WF disk file :      3.006 Mbytes ; DEN or POT disk file :      0.269 Mbytes.
================================================================================
 
 Biggest array : f_fftgr(disk), with      4.2735 MBytes.
 memana : allocated an array of      4.273 Mbytes, for testing purposes.
 memana: allocated      15.442Mbytes, for testing purposes. 
 The job will continue.
 
 DATASET   13 : space group P1 (#  1); Bravais aP (primitive triclinic)
 
 getdim_nloc: deduce lmnmax  =  18, lnmax  =   6,
                      lmnmaxso=  18, lnmaxso=   6.
memory: analysis of memory needs
================================================================================
 Values of the parameters that define the memory need for DATASET 13.
     intxc =       0    ionmov =       2      iscf =       7    lmnmax =       6
     lnmax =       6     mgfft =     108  mpssoang =       3    mqgrid =    5381
     natom =       3  nloc_mem =       1    nspden =       1   nspinor =       1
    nsppol =       1      nsym =       1    n1xccc =    2501    ntypat =       2
    occopt =       1   xclevel =       2
-    mband =          14        mffmem =           1         mkmem =          18
       mpw =        1768          nfft =       34992          nkpt =          18
================================================================================
P This job should need less than                      19.467 Mbytes of memory.
  Rough estimation (10% accuracy) of disk space for files :
_ WF disk file :      6.800 Mbytes ; DEN or POT disk file :      0.269 Mbytes.
================================================================================
 
 Biggest array : cg(disk), with      6.8003 MBytes.
 memana : allocated an array of      6.800 Mbytes, for testing purposes.
 memana: allocated      19.467Mbytes, for testing purposes. 
 The job will continue.
 
 DATASET   21 : space group P1 (#  1); Bravais aP (primitive triclinic)
 
 getdim_nloc: deduce lmnmax  =  18, lnmax  =   6,
                      lmnmaxso=  18, lnmaxso=   6.
memory: analysis of memory needs
================================================================================
 Values of the parameters that define the memory need for DATASET 21.
     intxc =       0    ionmov =       2      iscf =       7    lmnmax =       6
     lnmax =       6     mgfft =     135  mpssoang =       3    mqgrid =    6590
     natom =       3  nloc_mem =       1    nspden =       1   nspinor =       1
    nsppol =       1      nsym =       1    n1xccc =    2501    ntypat =       2
    occopt =       1   xclevel =       2
-    mband =          14        mffmem =           1         mkmem =           2
       mpw =        3224          nfft =       77760          nkpt =           2
================================================================================
P This job should need less than                      26.708 Mbytes of memory.
  Rough estimation (10% accuracy) of disk space for files :
_ WF disk file :      1.379 Mbytes ; DEN or POT disk file :      0.595 Mbytes.
================================================================================
 
 Biggest array : f_fftgr(disk), with      9.4942 MBytes.
 memana : allocated an array of      9.494 Mbytes, for testing purposes.
 memana: allocated      26.708Mbytes, for testing purposes. 
 The job will continue.
 
 DATASET   22 : space group P1 (#  1); Bravais aP (primitive triclinic)
 
 getdim_nloc: deduce lmnmax  =  18, lnmax  =   6,
                      lmnmaxso=  18, lnmaxso=   6.
memory: analysis of memory needs
================================================================================
 Values of the parameters that define the memory need for DATASET 22.
     intxc =       0    ionmov =       2      iscf =       7    lmnmax =       6
     lnmax =       6     mgfft =     135  mpssoang =       3    mqgrid =    6590
     natom =       3  nloc_mem =       1    nspden =       1   nspinor =       1
    nsppol =       1      nsym =       1    n1xccc =    2501    ntypat =       2
    occopt =       1   xclevel =       2
-    mband =          14        mffmem =           1         mkmem =           8
       mpw =        3240          nfft =       77760          nkpt =           8
================================================================================
P This job should need less than                      31.093 Mbytes of memory.
  Rough estimation (10% accuracy) of disk space for files :
_ WF disk file :      5.539 Mbytes ; DEN or POT disk file :      0.595 Mbytes.
================================================================================
 
 Biggest array : f_fftgr(disk), with      9.4942 MBytes.
 memana : allocated an array of      9.494 Mbytes, for testing purposes.
 memana: allocated      31.093Mbytes, for testing purposes. 
 The job will continue.
 
 DATASET   23 : space group P1 (#  1); Bravais aP (primitive triclinic)
 
 getdim_nloc: deduce lmnmax  =  18, lnmax  =   6,
                      lmnmaxso=  18, lnmaxso=   6.
memory: analysis of memory needs
================================================================================
 Values of the parameters that define the memory need for DATASET 23.
     intxc =       0    ionmov =       2      iscf =       7    lmnmax =       6
     lnmax =       6     mgfft =     135  mpssoang =       3    mqgrid =    6590
     natom =       3  nloc_mem =       1    nspden =       1   nspinor =       1
    nsppol =       1      nsym =       1    n1xccc =    2501    ntypat =       2
    occopt =       1   xclevel =       2
-    mband =          14        mffmem =           1         mkmem =          18
       mpw =        3240          nfft =       77760          nkpt =          18
================================================================================
P This job should need less than                      38.388 Mbytes of memory.
  Rough estimation (10% accuracy) of disk space for files :
_ WF disk file :     12.460 Mbytes ; DEN or POT disk file :      0.595 Mbytes.
================================================================================
 
 Biggest array : cg(disk), with     12.4605 MBytes.
 memana : allocated an array of     12.460 Mbytes, for testing purposes.
 memana: allocated      38.388Mbytes, for testing purposes. 
 The job will continue.
 
 DATASET   31 : space group P1 (#  1); Bravais aP (primitive triclinic)
 
 getdim_nloc: deduce lmnmax  =  18, lnmax  =   6,
                      lmnmaxso=  18, lnmaxso=   6.
memory: analysis of memory needs
================================================================================
 Values of the parameters that define the memory need for DATASET 31.
     intxc =       0    ionmov =       2      iscf =       7    lmnmax =       6
     lnmax =       6     mgfft =     160  mpssoang =       3    mqgrid =    7609
     natom =       3  nloc_mem =       1    nspden =       1   nspinor =       1
    nsppol =       1      nsym =       1    n1xccc =    2501    ntypat =       2
    occopt =       1   xclevel =       2
-    mband =          14        mffmem =           1         mkmem =           2
       mpw =        4986          nfft =       92160          nkpt =           2
================================================================================
P This job should need less than                      32.234 Mbytes of memory.
  Rough estimation (10% accuracy) of disk space for files :
_ WF disk file :      2.132 Mbytes ; DEN or POT disk file :      0.705 Mbytes.
================================================================================
 
 Biggest array : f_fftgr(disk), with     11.2520 MBytes.
 memana : allocated an array of     11.252 Mbytes, for testing purposes.
 memana: allocated      32.234Mbytes, for testing purposes. 
 The job will continue.
 
 DATASET   32 : space group P1 (#  1); Bravais aP (primitive triclinic)
 
 getdim_nloc: deduce lmnmax  =  18, lnmax  =   6,
                      lmnmaxso=  18, lnmaxso=   6.
memory: analysis of memory needs
================================================================================
 Values of the parameters that define the memory need for DATASET 32.
     intxc =       0    ionmov =       2      iscf =       7    lmnmax =       6
     lnmax =       6     mgfft =     160  mpssoang =       3    mqgrid =    7609
     natom =       3  nloc_mem =       1    nspden =       1   nspinor =       1
    nsppol =       1      nsym =       1    n1xccc =    2501    ntypat =       2
    occopt =       1   xclevel =       2
-    mband =          14        mffmem =           1         mkmem =           8
       mpw =        4992          nfft =       92160          nkpt =           8
================================================================================
P This job should need less than                      38.995 Mbytes of memory.
  Rough estimation (10% accuracy) of disk space for files :
_ WF disk file :      8.533 Mbytes ; DEN or POT disk file :      0.705 Mbytes.
================================================================================
 
 Biggest array : f_fftgr(disk), with     11.2520 MBytes.
 memana : allocated an array of     11.252 Mbytes, for testing purposes.
 memana: allocated      38.995Mbytes, for testing purposes. 
 The job will continue.
 
 DATASET   33 : space group P1 (#  1); Bravais aP (primitive triclinic)
 
 getdim_nloc: deduce lmnmax  =  18, lnmax  =   6,
                      lmnmaxso=  18, lnmaxso=   6.
memory: analysis of memory needs
================================================================================
 Values of the parameters that define the memory need for DATASET 33.
     intxc =       0    ionmov =       2      iscf =       7    lmnmax =       6
     lnmax =       6     mgfft =     160  mpssoang =       3    mqgrid =    7609
     natom =       3  nloc_mem =       1    nspden =       1   nspinor =       1
    nsppol =       1      nsym =       1    n1xccc =    2501    ntypat =       2
    occopt =       1   xclevel =       2
-    mband =          14        mffmem =           1         mkmem =          18
       mpw =        4992          nfft =       92160          nkpt =          18
================================================================================
P This job should need less than                      50.255 Mbytes of memory.
  Rough estimation (10% accuracy) of disk space for files :
_ WF disk file :     19.197 Mbytes ; DEN or POT disk file :      0.705 Mbytes.
================================================================================
 
 Biggest array : cg(disk), with     19.1973 MBytes.
 memana : allocated an array of     19.197 Mbytes, for testing purposes.
 memana: allocated      50.255Mbytes, for testing purposes. 
 The job will continue.
 
 DATASET   41 : space group P1 (#  1); Bravais aP (primitive triclinic)
 
 getdim_nloc: deduce lmnmax  =  18, lnmax  =   6,
                      lmnmaxso=  18, lnmaxso=   6.
memory: analysis of memory needs
================================================================================
 Values of the parameters that define the memory need for DATASET 41.
     intxc =       0    ionmov =       2      iscf =       7    lmnmax =       6
     lnmax =       6     mgfft =     180  mpssoang =       3    mqgrid =    8507
     natom =       3  nloc_mem =       1    nspden =       1   nspinor =       1
    nsppol =       1      nsym =       1    n1xccc =    2501    ntypat =       2
    occopt =       1   xclevel =       2
-    mband =          14        mffmem =           1         mkmem =           2
       mpw =        6930          nfft =      162000          nkpt =           2
================================================================================
P This job should need less than                      53.960 Mbytes of memory.
  Rough estimation (10% accuracy) of disk space for files :
_ WF disk file :      2.963 Mbytes ; DEN or POT disk file :      1.238 Mbytes.
================================================================================
 
 Biggest array : f_fftgr(disk), with     19.7774 MBytes.
 memana : allocated an array of     19.777 Mbytes, for testing purposes.
 memana: allocated      53.960Mbytes, for testing purposes. 
 The job will continue.
 
 DATASET   42 : space group P1 (#  1); Bravais aP (primitive triclinic)
 
 getdim_nloc: deduce lmnmax  =  18, lnmax  =   6,
                      lmnmaxso=  18, lnmaxso=   6.
memory: analysis of memory needs
================================================================================
 Values of the parameters that define the memory need for DATASET 42.
     intxc =       0    ionmov =       2      iscf =       7    lmnmax =       6
     lnmax =       6     mgfft =     180  mpssoang =       3    mqgrid =    8507
     natom =       3  nloc_mem =       1    nspden =       1   nspinor =       1
    nsppol =       1      nsym =       1    n1xccc =    2501    ntypat =       2
    occopt =       1   xclevel =       2
-    mband =          14        mffmem =           1         mkmem =           8
       mpw =        6962          nfft =      162000          nkpt =           8
================================================================================
P This job should need less than                      63.377 Mbytes of memory.
  Rough estimation (10% accuracy) of disk space for files :
_ WF disk file :     11.900 Mbytes ; DEN or POT disk file :      1.238 Mbytes.
================================================================================
 
 Biggest array : f_fftgr(disk), with     19.7774 MBytes.
 memana : allocated an array of     19.777 Mbytes, for testing purposes.
 memana: allocated      63.377Mbytes, for testing purposes. 
 The job will continue.
 
 DATASET   43 : space group P1 (#  1); Bravais aP (primitive triclinic)
 
 getdim_nloc: deduce lmnmax  =  18, lnmax  =   6,
                      lmnmaxso=  18, lnmaxso=   6.
memory: analysis of memory needs
================================================================================
 Values of the parameters that define the memory need for DATASET 43.
     intxc =       0    ionmov =       2      iscf =       7    lmnmax =       6
     lnmax =       6     mgfft =     180  mpssoang =       3    mqgrid =    8507
     natom =       3  nloc_mem =       1    nspden =       1   nspinor =       1
    nsppol =       1      nsym =       1    n1xccc =    2501    ntypat =       2
    occopt =       1   xclevel =       2
-    mband =          14        mffmem =           1         mkmem =          18
       mpw =        6980          nfft =      162000          nkpt =          18
================================================================================
P This job should need less than                      79.123 Mbytes of memory.
  Rough estimation (10% accuracy) of disk space for files :
_ WF disk file :     26.842 Mbytes ; DEN or POT disk file :      1.238 Mbytes.
================================================================================
 
 Biggest array : cg(disk), with     26.8416 MBytes.
 memana : allocated an array of     26.842 Mbytes, for testing purposes.
 memana: allocated      79.123Mbytes, for testing purposes. 
 The job will continue.
 
 DATASET   51 : space group P1 (#  1); Bravais aP (primitive triclinic)
 
 getdim_nloc: deduce lmnmax  =  18, lnmax  =   6,
                      lmnmaxso=  18, lnmaxso=   6.
memory: analysis of memory needs
================================================================================
 Values of the parameters that define the memory need for DATASET 51.
     intxc =       0    ionmov =       2      iscf =       7    lmnmax =       6
     lnmax =       6     mgfft =     192  mpssoang =       3    mqgrid =    9319
     natom =       3  nloc_mem =       1    nspden =       1   nspinor =       1
    nsppol =       1      nsym =       1    n1xccc =    2501    ntypat =       2
    occopt =       1   xclevel =       2
-    mband =          14        mffmem =           1         mkmem =           2
       mpw =        9128          nfft =      172800          nkpt =           2
================================================================================
P This job should need less than                      58.597 Mbytes of memory.
  Rough estimation (10% accuracy) of disk space for files :
_ WF disk file :      3.902 Mbytes ; DEN or POT disk file :      1.320 Mbytes.
================================================================================
 
 Biggest array : f_fftgr(disk), with     21.0958 MBytes.
 memana : allocated an array of     21.096 Mbytes, for testing purposes.
 memana: allocated      58.597Mbytes, for testing purposes. 
 The job will continue.
 
 DATASET   52 : space group P1 (#  1); Bravais aP (primitive triclinic)
 
 getdim_nloc: deduce lmnmax  =  18, lnmax  =   6,
                      lmnmaxso=  18, lnmaxso=   6.
memory: analysis of memory needs
================================================================================
 Values of the parameters that define the memory need for DATASET 52.
     intxc =       0    ionmov =       2      iscf =       7    lmnmax =       6
     lnmax =       6     mgfft =     192  mpssoang =       3    mqgrid =    9319
     natom =       3  nloc_mem =       1    nspden =       1   nspinor =       1
    nsppol =       1      nsym =       1    n1xccc =    2501    ntypat =       2
    occopt =       1   xclevel =       2
-    mband =          14        mffmem =           1         mkmem =           8
       mpw =        9158          nfft =      172800          nkpt =           8
================================================================================
P This job should need less than                      71.001 Mbytes of memory.
  Rough estimation (10% accuracy) of disk space for files :
_ WF disk file :     15.653 Mbytes ; DEN or POT disk file :      1.320 Mbytes.
================================================================================
 
 Biggest array : f_fftgr(disk), with     21.0958 MBytes.
 memana : allocated an array of     21.096 Mbytes, for testing purposes.
 memana: allocated      71.001Mbytes, for testing purposes. 
 The job will continue.
 
 DATASET   53 : space group P1 (#  1); Bravais aP (primitive triclinic)
 
 getdim_nloc: deduce lmnmax  =  18, lnmax  =   6,
                      lmnmaxso=  18, lnmaxso=   6.
memory: analysis of memory needs
================================================================================
 Values of the parameters that define the memory need for DATASET 53.
     intxc =       0    ionmov =       2      iscf =       7    lmnmax =       6
     lnmax =       6     mgfft =     192  mpssoang =       3    mqgrid =    9319
     natom =       3  nloc_mem =       1    nspden =       1   nspinor =       1
    nsppol =       1      nsym =       1    n1xccc =    2501    ntypat =       2
    occopt =       1   xclevel =       2
-    mband =          14        mffmem =           1         mkmem =          18
       mpw =        9160          nfft =      172800          nkpt =          18
================================================================================
P This job should need less than                      91.646 Mbytes of memory.
  Rough estimation (10% accuracy) of disk space for files :
_ WF disk file :     35.224 Mbytes ; DEN or POT disk file :      1.320 Mbytes.
================================================================================
 
 Biggest array : cg(disk), with     35.2242 MBytes.
 memana : allocated an array of     35.224 Mbytes, for testing purposes.
 memana: allocated      91.646Mbytes, for testing purposes. 
 The job will continue.
 
 DATASET   61 : space group P1 (#  1); Bravais aP (primitive triclinic)
 
 getdim_nloc: deduce lmnmax  =  18, lnmax  =   6,
                      lmnmaxso=  18, lnmaxso=   6.
memory: analysis of memory needs
================================================================================
 Values of the parameters that define the memory need for DATASET 61.
     intxc =       0    ionmov =       2      iscf =       7    lmnmax =       6
     lnmax =       6     mgfft =     216  mpssoang =       3    mqgrid =   10066
     natom =       3  nloc_mem =       1    nspden =       1   nspinor =       1
    nsppol =       1      nsym =       1    n1xccc =    2501    ntypat =       2
    occopt =       1   xclevel =       2
-    mband =          14        mffmem =           1         mkmem =           2
       mpw =       11496          nfft =      221184          nkpt =           2
================================================================================
P This job should need less than                      74.266 Mbytes of memory.
  Rough estimation (10% accuracy) of disk space for files :
_ WF disk file :      4.914 Mbytes ; DEN or POT disk file :      1.690 Mbytes.
================================================================================
 
 Biggest array : f_fftgr(disk), with     27.0020 MBytes.
 memana : allocated an array of     27.002 Mbytes, for testing purposes.
 memana: allocated      74.266Mbytes, for testing purposes. 
 The job will continue.
 
 DATASET   62 : space group P1 (#  1); Bravais aP (primitive triclinic)
 
 getdim_nloc: deduce lmnmax  =  18, lnmax  =   6,
                      lmnmaxso=  18, lnmaxso=   6.
memory: analysis of memory needs
================================================================================
 Values of the parameters that define the memory need for DATASET 62.
     intxc =       0    ionmov =       2      iscf =       7    lmnmax =       6
     lnmax =       6     mgfft =     216  mpssoang =       3    mqgrid =   10066
     natom =       3  nloc_mem =       1    nspden =       1   nspinor =       1
    nsppol =       1      nsym =       1    n1xccc =    2501    ntypat =       2
    occopt =       1   xclevel =       2
-    mband =          14        mffmem =           1         mkmem =           8
       mpw =       11526          nfft =      221184          nkpt =           8
================================================================================
P This job should need less than                      89.867 Mbytes of memory.
  Rough estimation (10% accuracy) of disk space for files :
_ WF disk file :     19.700 Mbytes ; DEN or POT disk file :      1.690 Mbytes.
================================================================================
 
 Biggest array : f_fftgr(disk), with     27.0020 MBytes.
 memana : allocated an array of     27.002 Mbytes, for testing purposes.
 memana: allocated      89.867Mbytes, for testing purposes. 
 The job will continue.
 
 DATASET   63 : space group P1 (#  1); Bravais aP (primitive triclinic)
 
 getdim_nloc: deduce lmnmax  =  18, lnmax  =   6,
                      lmnmaxso=  18, lnmaxso=   6.
memory: analysis of memory needs
================================================================================
 Values of the parameters that define the memory need for DATASET 63.
     intxc =       0    ionmov =       2      iscf =       7    lmnmax =       6
     lnmax =       6     mgfft =     216  mpssoang =       3    mqgrid =   10066
     natom =       3  nloc_mem =       1    nspden =       1   nspinor =       1
    nsppol =       1      nsym =       1    n1xccc =    2501    ntypat =       2
    occopt =       1   xclevel =       2
-    mband =          14        mffmem =           1         mkmem =          18
       mpw =       11518          nfft =      221184          nkpt =          18
================================================================================
P This job should need less than                     115.798 Mbytes of memory.
  Rough estimation (10% accuracy) of disk space for files :
_ WF disk file :     44.291 Mbytes ; DEN or POT disk file :      1.690 Mbytes.
================================================================================
 
 Biggest array : cg(disk), with     44.2912 MBytes.
 memana : allocated an array of     44.291 Mbytes, for testing purposes.
 memana: allocated     115.798Mbytes, for testing purposes. 
 The job will continue.
 
--- !COMMENT
src_file: m_outvars.F90
src_line: 202
message: |
    output of OUT.nc has been disabled. Too many datasets
...
 
--------------------------------------------------------------------------------
------------- Echo of variables that govern the present computation ------------
--------------------------------------------------------------------------------
-
- outvars: echo of selected default values                                      
-   iomode0 =  0 , fftalg0 =512 , wfoptalg0 =  0
-
- outvars: echo of global parameters not present in the input file              
-  max_nthreads =    0
-
 -outvars: echo values of preprocessed input variables --------
 
--- !COMMENT
src_file: m_outvars.F90
src_line: 202
message: |
    output of OUT.nc has been disabled. Too many datasets
...
 
            acell      5.9526373186E+00  5.9526373186E+00  3.7794522658E+01 Bohr
              amu      9.59400000E+01  3.20660000E+01
      chksymbreak           0
             ecut11    1.00000000E+01 Hartree
             ecut12    1.00000000E+01 Hartree
             ecut13    1.00000000E+01 Hartree
             ecut21    1.50000000E+01 Hartree
             ecut22    1.50000000E+01 Hartree
             ecut23    1.50000000E+01 Hartree
             ecut31    2.00000000E+01 Hartree
             ecut32    2.00000000E+01 Hartree
             ecut33    2.00000000E+01 Hartree
             ecut41    2.50000000E+01 Hartree
             ecut42    2.50000000E+01 Hartree
             ecut43    2.50000000E+01 Hartree
             ecut51    3.00000000E+01 Hartree
             ecut52    3.00000000E+01 Hartree
             ecut53    3.00000000E+01 Hartree
             ecut61    3.50000000E+01 Hartree
             ecut62    3.50000000E+01 Hartree
             ecut63    3.50000000E+01 Hartree
-          fftalg         512
           ionmov           2
              ixc          11
           jdtset       11   12   13   21   22   23   31   32   33   41
                        42   43   51   52   53   61   62   63
              kpt11    2.50000000E-01  2.50000000E-01  5.00000000E-01
                      -2.50000000E-01  2.50000000E-01  5.00000000E-01
              kpt12    1.25000000E-01  1.25000000E-01  5.00000000E-01
                       3.75000000E-01  1.25000000E-01  5.00000000E-01
                      -3.75000000E-01  1.25000000E-01  5.00000000E-01
                      -1.25000000E-01  1.25000000E-01  5.00000000E-01
                       1.25000000E-01  3.75000000E-01  5.00000000E-01
                       3.75000000E-01  3.75000000E-01  5.00000000E-01
                      -3.75000000E-01  3.75000000E-01  5.00000000E-01
                      -1.25000000E-01  3.75000000E-01  5.00000000E-01
              kpt13    8.33333333E-02  8.33333333E-02  5.00000000E-01
                       2.50000000E-01  8.33333333E-02  5.00000000E-01
                       4.16666667E-01  8.33333333E-02  5.00000000E-01
                      -4.16666667E-01  8.33333333E-02  5.00000000E-01
                      -2.50000000E-01  8.33333333E-02  5.00000000E-01
                      -8.33333333E-02  8.33333333E-02  5.00000000E-01
                       8.33333333E-02  2.50000000E-01  5.00000000E-01
                       2.50000000E-01  2.50000000E-01  5.00000000E-01
                       4.16666667E-01  2.50000000E-01  5.00000000E-01
                      -4.16666667E-01  2.50000000E-01  5.00000000E-01
                      -2.50000000E-01  2.50000000E-01  5.00000000E-01
                      -8.33333333E-02  2.50000000E-01  5.00000000E-01
                       8.33333333E-02  4.16666667E-01  5.00000000E-01
                       2.50000000E-01  4.16666667E-01  5.00000000E-01
                       4.16666667E-01  4.16666667E-01  5.00000000E-01
                      -4.16666667E-01  4.16666667E-01  5.00000000E-01
                      -2.50000000E-01  4.16666667E-01  5.00000000E-01
                      -8.33333333E-02  4.16666667E-01  5.00000000E-01
              kpt21    2.50000000E-01  2.50000000E-01  5.00000000E-01
                      -2.50000000E-01  2.50000000E-01  5.00000000E-01
              kpt22    1.25000000E-01  1.25000000E-01  5.00000000E-01
                       3.75000000E-01  1.25000000E-01  5.00000000E-01
                      -3.75000000E-01  1.25000000E-01  5.00000000E-01
                      -1.25000000E-01  1.25000000E-01  5.00000000E-01
                       1.25000000E-01  3.75000000E-01  5.00000000E-01
                       3.75000000E-01  3.75000000E-01  5.00000000E-01
                      -3.75000000E-01  3.75000000E-01  5.00000000E-01
                      -1.25000000E-01  3.75000000E-01  5.00000000E-01
              kpt23    8.33333333E-02  8.33333333E-02  5.00000000E-01
                       2.50000000E-01  8.33333333E-02  5.00000000E-01
                       4.16666667E-01  8.33333333E-02  5.00000000E-01
                      -4.16666667E-01  8.33333333E-02  5.00000000E-01
                      -2.50000000E-01  8.33333333E-02  5.00000000E-01
                      -8.33333333E-02  8.33333333E-02  5.00000000E-01
                       8.33333333E-02  2.50000000E-01  5.00000000E-01
                       2.50000000E-01  2.50000000E-01  5.00000000E-01
                       4.16666667E-01  2.50000000E-01  5.00000000E-01
                      -4.16666667E-01  2.50000000E-01  5.00000000E-01
                      -2.50000000E-01  2.50000000E-01  5.00000000E-01
                      -8.33333333E-02  2.50000000E-01  5.00000000E-01
                       8.33333333E-02  4.16666667E-01  5.00000000E-01
                       2.50000000E-01  4.16666667E-01  5.00000000E-01
                       4.16666667E-01  4.16666667E-01  5.00000000E-01
                      -4.16666667E-01  4.16666667E-01  5.00000000E-01
                      -2.50000000E-01  4.16666667E-01  5.00000000E-01
                      -8.33333333E-02  4.16666667E-01  5.00000000E-01
              kpt31    2.50000000E-01  2.50000000E-01  5.00000000E-01
                      -2.50000000E-01  2.50000000E-01  5.00000000E-01
              kpt32    1.25000000E-01  1.25000000E-01  5.00000000E-01
                       3.75000000E-01  1.25000000E-01  5.00000000E-01
                      -3.75000000E-01  1.25000000E-01  5.00000000E-01
                      -1.25000000E-01  1.25000000E-01  5.00000000E-01
                       1.25000000E-01  3.75000000E-01  5.00000000E-01
                       3.75000000E-01  3.75000000E-01  5.00000000E-01
                      -3.75000000E-01  3.75000000E-01  5.00000000E-01
                      -1.25000000E-01  3.75000000E-01  5.00000000E-01
              kpt33    8.33333333E-02  8.33333333E-02  5.00000000E-01
                       2.50000000E-01  8.33333333E-02  5.00000000E-01
                       4.16666667E-01  8.33333333E-02  5.00000000E-01
                      -4.16666667E-01  8.33333333E-02  5.00000000E-01
                      -2.50000000E-01  8.33333333E-02  5.00000000E-01
                      -8.33333333E-02  8.33333333E-02  5.00000000E-01
                       8.33333333E-02  2.50000000E-01  5.00000000E-01
                       2.50000000E-01  2.50000000E-01  5.00000000E-01
                       4.16666667E-01  2.50000000E-01  5.00000000E-01
                      -4.16666667E-01  2.50000000E-01  5.00000000E-01
                      -2.50000000E-01  2.50000000E-01  5.00000000E-01
                      -8.33333333E-02  2.50000000E-01  5.00000000E-01
                       8.33333333E-02  4.16666667E-01  5.00000000E-01
                       2.50000000E-01  4.16666667E-01  5.00000000E-01
                       4.16666667E-01  4.16666667E-01  5.00000000E-01
                      -4.16666667E-01  4.16666667E-01  5.00000000E-01
                      -2.50000000E-01  4.16666667E-01  5.00000000E-01
                      -8.33333333E-02  4.16666667E-01  5.00000000E-01
              kpt41    2.50000000E-01  2.50000000E-01  5.00000000E-01
                      -2.50000000E-01  2.50000000E-01  5.00000000E-01
              kpt42    1.25000000E-01  1.25000000E-01  5.00000000E-01
                       3.75000000E-01  1.25000000E-01  5.00000000E-01
                      -3.75000000E-01  1.25000000E-01  5.00000000E-01
                      -1.25000000E-01  1.25000000E-01  5.00000000E-01
                       1.25000000E-01  3.75000000E-01  5.00000000E-01
                       3.75000000E-01  3.75000000E-01  5.00000000E-01
                      -3.75000000E-01  3.75000000E-01  5.00000000E-01
                      -1.25000000E-01  3.75000000E-01  5.00000000E-01
              kpt43    8.33333333E-02  8.33333333E-02  5.00000000E-01
                       2.50000000E-01  8.33333333E-02  5.00000000E-01
                       4.16666667E-01  8.33333333E-02  5.00000000E-01
                      -4.16666667E-01  8.33333333E-02  5.00000000E-01
                      -2.50000000E-01  8.33333333E-02  5.00000000E-01
                      -8.33333333E-02  8.33333333E-02  5.00000000E-01
                       8.33333333E-02  2.50000000E-01  5.00000000E-01
                       2.50000000E-01  2.50000000E-01  5.00000000E-01
                       4.16666667E-01  2.50000000E-01  5.00000000E-01
                      -4.16666667E-01  2.50000000E-01  5.00000000E-01
                      -2.50000000E-01  2.50000000E-01  5.00000000E-01
                      -8.33333333E-02  2.50000000E-01  5.00000000E-01
                       8.33333333E-02  4.16666667E-01  5.00000000E-01
                       2.50000000E-01  4.16666667E-01  5.00000000E-01
                       4.16666667E-01  4.16666667E-01  5.00000000E-01
                      -4.16666667E-01  4.16666667E-01  5.00000000E-01
                      -2.50000000E-01  4.16666667E-01  5.00000000E-01
                      -8.33333333E-02  4.16666667E-01  5.00000000E-01
              kpt51    2.50000000E-01  2.50000000E-01  5.00000000E-01
                      -2.50000000E-01  2.50000000E-01  5.00000000E-01
              kpt52    1.25000000E-01  1.25000000E-01  5.00000000E-01
                       3.75000000E-01  1.25000000E-01  5.00000000E-01
                      -3.75000000E-01  1.25000000E-01  5.00000000E-01
                      -1.25000000E-01  1.25000000E-01  5.00000000E-01
                       1.25000000E-01  3.75000000E-01  5.00000000E-01
                       3.75000000E-01  3.75000000E-01  5.00000000E-01
                      -3.75000000E-01  3.75000000E-01  5.00000000E-01
                      -1.25000000E-01  3.75000000E-01  5.00000000E-01
              kpt53    8.33333333E-02  8.33333333E-02  5.00000000E-01
                       2.50000000E-01  8.33333333E-02  5.00000000E-01
                       4.16666667E-01  8.33333333E-02  5.00000000E-01
                      -4.16666667E-01  8.33333333E-02  5.00000000E-01
                      -2.50000000E-01  8.33333333E-02  5.00000000E-01
                      -8.33333333E-02  8.33333333E-02  5.00000000E-01
                       8.33333333E-02  2.50000000E-01  5.00000000E-01
                       2.50000000E-01  2.50000000E-01  5.00000000E-01
                       4.16666667E-01  2.50000000E-01  5.00000000E-01
                      -4.16666667E-01  2.50000000E-01  5.00000000E-01
                      -2.50000000E-01  2.50000000E-01  5.00000000E-01
                      -8.33333333E-02  2.50000000E-01  5.00000000E-01
                       8.33333333E-02  4.16666667E-01  5.00000000E-01
                       2.50000000E-01  4.16666667E-01  5.00000000E-01
                       4.16666667E-01  4.16666667E-01  5.00000000E-01
                      -4.16666667E-01  4.16666667E-01  5.00000000E-01
                      -2.50000000E-01  4.16666667E-01  5.00000000E-01
                      -8.33333333E-02  4.16666667E-01  5.00000000E-01
              kpt61    2.50000000E-01  2.50000000E-01  5.00000000E-01
                      -2.50000000E-01  2.50000000E-01  5.00000000E-01
              kpt62    1.25000000E-01  1.25000000E-01  5.00000000E-01
                       3.75000000E-01  1.25000000E-01  5.00000000E-01
                      -3.75000000E-01  1.25000000E-01  5.00000000E-01
                      -1.25000000E-01  1.25000000E-01  5.00000000E-01
                       1.25000000E-01  3.75000000E-01  5.00000000E-01
                       3.75000000E-01  3.75000000E-01  5.00000000E-01
                      -3.75000000E-01  3.75000000E-01  5.00000000E-01
                      -1.25000000E-01  3.75000000E-01  5.00000000E-01
              kpt63    8.33333333E-02  8.33333333E-02  5.00000000E-01
                       2.50000000E-01  8.33333333E-02  5.00000000E-01
                       4.16666667E-01  8.33333333E-02  5.00000000E-01
                      -4.16666667E-01  8.33333333E-02  5.00000000E-01
                      -2.50000000E-01  8.33333333E-02  5.00000000E-01
                      -8.33333333E-02  8.33333333E-02  5.00000000E-01
                       8.33333333E-02  2.50000000E-01  5.00000000E-01
                       2.50000000E-01  2.50000000E-01  5.00000000E-01
                       4.16666667E-01  2.50000000E-01  5.00000000E-01
                      -4.16666667E-01  2.50000000E-01  5.00000000E-01
                      -2.50000000E-01  2.50000000E-01  5.00000000E-01
                      -8.33333333E-02  2.50000000E-01  5.00000000E-01
                       8.33333333E-02  4.16666667E-01  5.00000000E-01
                       2.50000000E-01  4.16666667E-01  5.00000000E-01
                       4.16666667E-01  4.16666667E-01  5.00000000E-01
                      -4.16666667E-01  4.16666667E-01  5.00000000E-01
                      -2.50000000E-01  4.16666667E-01  5.00000000E-01
                      -8.33333333E-02  4.16666667E-01  5.00000000E-01
         kptrlatt11      2    0    0      0    2    0      0    0    1
         kptrlatt12      4    0    0      0    4    0      0    0    1
         kptrlatt13      6    0    0      0    6    0      0    0    1
         kptrlatt21      2    0    0      0    2    0      0    0    1
         kptrlatt22      4    0    0      0    4    0      0    0    1
         kptrlatt23      6    0    0      0    6    0      0    0    1
         kptrlatt31      2    0    0      0    2    0      0    0    1
         kptrlatt32      4    0    0      0    4    0      0    0    1
         kptrlatt33      6    0    0      0    6    0      0    0    1
         kptrlatt41      2    0    0      0    2    0      0    0    1
         kptrlatt42      4    0    0      0    4    0      0    0    1
         kptrlatt43      6    0    0      0    6    0      0    0    1
         kptrlatt51      2    0    0      0    2    0      0    0    1
         kptrlatt52      4    0    0      0    4    0      0    0    1
         kptrlatt53      6    0    0      0    6    0      0    0    1
         kptrlatt61      2    0    0      0    2    0      0    0    1
         kptrlatt62      4    0    0      0    4    0      0    0    1
         kptrlatt63      6    0    0      0    6    0      0    0    1
          kptrlen11    1.19052746E+01
          kptrlen12    2.38105493E+01
          kptrlen13    3.57158239E+01
          kptrlen21    1.19052746E+01
          kptrlen22    2.38105493E+01
          kptrlen23    3.57158239E+01
          kptrlen31    1.19052746E+01
          kptrlen32    2.38105493E+01
          kptrlen33    3.57158239E+01
          kptrlen41    1.19052746E+01
          kptrlen42    2.38105493E+01
          kptrlen43    3.57158239E+01
          kptrlen51    1.19052746E+01
          kptrlen52    2.38105493E+01
          kptrlen53    3.57158239E+01
          kptrlen61    1.19052746E+01
          kptrlen62    2.38105493E+01
          kptrlen63    3.57158239E+01
P           mkmem11         2
P           mkmem12         8
P           mkmem13        18
P           mkmem21         2
P           mkmem22         8
P           mkmem23        18
P           mkmem31         2
P           mkmem32         8
P           mkmem33        18
P           mkmem41         2
P           mkmem42         8
P           mkmem43        18
P           mkmem51         2
P           mkmem52         8
P           mkmem53        18
P           mkmem61         2
P           mkmem62         8
P           mkmem63        18
            natom           3
            nband11        14
            nband12        14
            nband13        14
            nband21        14
            nband22        14
            nband23        14
            nband31        14
            nband32        14
            nband33        14
            nband41        14
            nband42        14
            nband43        14
            nband51        14
            nband52        14
            nband53        14
            nband61        14
            nband62        14
            nband63        14
           ndtset          18
            ngfft11        18      18     108
            ngfft12        18      18     108
            ngfft13        18      18     108
            ngfft21        24      24     135
            ngfft22        24      24     135
            ngfft23        24      24     135
            ngfft31        24      24     160
            ngfft32        24      24     160
            ngfft33        24      24     160
            ngfft41        30      30     180
            ngfft42        30      30     180
            ngfft43        30      30     180
            ngfft51        30      30     192
            ngfft52        30      30     192
            ngfft53        30      30     192
            ngfft61        32      32     216
            ngfft62        32      32     216
            ngfft63        32      32     216
             nkpt11         2
             nkpt12         8
             nkpt13        18
             nkpt21         2
             nkpt22         8
             nkpt23        18
             nkpt31         2
             nkpt32         8
             nkpt33        18
             nkpt41         2
             nkpt42         8
             nkpt43        18
             nkpt51         2
             nkpt52         8
             nkpt53        18
             nkpt61         2
             nkpt62         8
             nkpt63        18
            nstep          20
             nsym           1
            ntime          10
           ntypat           2
              occ11    2.000000  2.000000  2.000000  2.000000  2.000000  2.000000
                       2.000000  2.000000  2.000000  2.000000  2.000000  2.000000
                       2.000000  0.000000
              occ12    2.000000  2.000000  2.000000  2.000000  2.000000  2.000000
                       2.000000  2.000000  2.000000  2.000000  2.000000  2.000000
                       2.000000  0.000000
              occ13    2.000000  2.000000  2.000000  2.000000  2.000000  2.000000
                       2.000000  2.000000  2.000000  2.000000  2.000000  2.000000
                       2.000000  0.000000
              occ21    2.000000  2.000000  2.000000  2.000000  2.000000  2.000000
[...]
- Creating HDf5 file with MPI-IO support: mos2_ecut_ko_DS63_GSR.nc
 Integrated electronic density in atomic spheres:
 ------------------------------------------------
 Atom  Sphere_radius  Integrated_density
    1        2.00000         10.60749625
    2        2.00000          4.01996281
    3        2.00000          4.01996091
 Write iteration in HIST netCDF file
 
---OUTPUT-----------------------------------------------------------------------
 
 Cartesian coordinates (xcart) [bohr]
  2.97631649195118E+00  1.71894999526414E+00 -2.78295114969062E-06
  2.97632244043011E+00 -1.71866389820981E+00 -2.72519590036814E+00
  2.97631704550338E+00 -1.71866447618353E+00  2.72519868331929E+00
 Reduced coordinates (xred)
  3.33277527804572E-01  6.66721743999306E-01 -7.36337160517807E-08
  6.66694994556347E-01  3.33306275850370E-01 -7.21055779708863E-02
  6.66694144305748E-01  3.33305313483657E-01  7.21056516046024E-02
 Cartesian forces (fcart) [Ha/bohr]; max,rms= 5.72606E-02 2.69926E-02 (free atoms)
  5.67568498991075E-07 -1.81083434365671E-04  1.68188469499100E-06
 -1.25110445815518E-06  9.05019053315341E-05 -5.72605674577533E-02
  6.83535959164105E-07  9.05815290341365E-05  5.72588855730583E-02
 Gradient of E wrt nuclear positions in reduced coordinates (gred)
 -9.35198840011266E-04  9.31820310583316E-04 -6.35660292124978E-05
  4.70273237718653E-04 -4.62825866631584E-04  2.16413581417555E+00
  4.64925602292613E-04 -4.68994443951732E-04 -2.16407224814634E+00
 Total energy (etotal) [Ha]= -9.23694301245408E+01
 
 Difference of energy with previous step (new-old):
           Absolute (Ha)=-1.56255E-02
           Relative     =-1.69178E-04
 fconv : at Broyd/MD step   3, gradients have not converged yet. 
  max grad (force/stress) = 5.7261E-02 > tolmxf= 5.0000E-04 ha/bohr (free atoms)
 
 EXIT:           1           1
 {mover_itime: 3 , wall_time: ' 01:45 [minutes] '} <<< TIME
 
--- Iteration: ( 4/10) Internal Cycle: (1/1)
--------------------------------------------------------------------------------
 
 Cartesian coordinates (xcart) [bohr]
  2.97631761081231E+00  1.71862989564543E+00 -1.09761604561290E-06
  2.97632017477461E+00 -1.71850400673848E+00 -3.05606178248145E+00
  2.97631819229774E+00 -1.71850426803616E+00  3.05606288009750E+00
 Reduced coordinates (xred)
  3.33308762440954E-01  6.66690885284073E-01 -2.90416697560514E-08
  6.66679105962022E-01  3.33321403217233E-01 -8.08599121666057E-02
  6.66678798263690E-01  3.33321044832027E-01  8.08599412082755E-02
 
---SELF-CONSISTENT-FIELD CONVERGENCE--------------------------------------------
 
 getcut: wavevector=  0.0000  0.0000  0.0000  ngfft=  32  32 216
         ecut(hartree)=     35.000   => boxcut(ratio)=   2.01856
 
 ITER STEP NUMBER     1
 Max number of non-self-consistent loops: 2
 Total charge density [el/Bohr^3]
)     Maximum=    9.2579E-01  at reduced coord.    0.1875    0.5313    0.0000
)     Minimum=    0.0000E+00  at reduced coord.    0.3438    0.6250    0.4074
   Integrated=    2.6000E+01
 ETOT  1  -92.052325113793    -9.205E+01 3.866E-03 1.222E+04 1.777E-01 2.349E-01
 scprqt: <Vxc>= -1.4930989E-01 hartree
 
 Simple mixing update:
  residual square of the potential:    526.707062505988
{SCF_istep: 1 , Vnl|psi>: 4450 , wall_time: ' 10.87 [s] '} <<< TIME
 
 ITER STEP NUMBER     2
 Max number of non-self-consistent loops: 2
 Total charge density [el/Bohr^3]
)     Maximum=    1.0116E+00  at reduced coord.    0.2500    0.7500    0.0000
)     Minimum=    0.0000E+00  at reduced coord.    0.5313    0.0938    0.4120
   Integrated=    2.6000E+01
 ETOT  2  -91.999830982818     5.249E-02 1.054E-03 4.588E+03 3.957E-01 1.608E-01
 scprqt: <Vxc>= -1.4677176E-01 hartree
 
 Pulay update with  1 previous iterations:
 mixing of old trial potential: alpha(m:m-4)=  0.506      0.494
{SCF_istep: 2 , Vnl|psi>: 2754 , wall_time: '  8.65 [s] '} <<< TIME
 
 ITER STEP NUMBER     3
 Total charge density [el/Bohr^3]
)     Maximum=    8.9629E-01  at reduced coord.    0.3125    0.6563    0.9769
)     Minimum=    0.0000E+00  at reduced coord.    0.5000    0.3750    0.4167
   Integrated=    2.6000E+01
 ETOT  3  -92.266496175957    -2.667E-01 4.184E-03 3.185E+03 2.275E-01 6.677E-02
 scprqt: <Vxc>= -1.4808426E-01 hartree
 
 Pulay update with  2 previous iterations:
 mixing of old trial potential: alpha(m:m-4)=  0.630      0.342      0.278E-01
{SCF_istep: 3 , Vnl|psi>: 1456 , wall_time: '  4.56 [s] '} <<< TIME
 
 ITER STEP NUMBER     4
 Total charge density [el/Bohr^3]
)     Maximum=    9.3088E-01  at reduced coord.    0.2500    0.7500    0.0000
)     Minimum=    0.0000E+00  at reduced coord.    0.0000    0.0000    0.4120
   Integrated=    2.6000E+01
 ETOT  4  -92.376154359225    -1.097E-01 6.331E-04 4.892E+02 6.220E-02 4.568E-03
 scprqt: <Vxc>= -1.4740341E-01 hartree
 
 Pulay update with  3 previous iterations:
 mixing of old trial potential: alpha(m:m-4)=   1.02     -0.520E-01  0.481E-01 -0.119E-01
{SCF_istep: 4 , Vnl|psi>: 1477 , wall_time: '  4.83 [s] '} <<< TIME
 
 ITER STEP NUMBER     5
 Total charge density [el/Bohr^3]
)     Maximum=    9.3592E-01  at reduced coord.    0.2500    0.7500    0.0000
)     Minimum=    0.0000E+00  at reduced coord.    0.0000    0.0000    0.3981
   Integrated=    2.6000E+01
 ETOT  5  -92.380978123389    -4.824E-03 1.705E-04 2.148E+02 1.087E-02 6.304E-03
 scprqt: <Vxc>= -1.4642224E-01 hartree
 
 Pulay update with  4 previous iterations:
 mixing of old trial potential: alpha(m:m-4)=  0.970      0.175     -0.100     -0.327E-01 -0.132E-01
{SCF_istep: 5 , Vnl|psi>: 1494 , wall_time: '  4.75 [s] '} <<< TIME
 
 ITER STEP NUMBER     6
 Total charge density [el/Bohr^3]
)     Maximum=    9.3707E-01  at reduced coord.    0.2500    0.7500    0.0000
)     Minimum=    0.0000E+00  at reduced coord.    0.0000    0.0000    0.3935
   Integrated=    2.6000E+01
 ETOT  6  -92.381531691808    -5.536E-04 7.479E-05 1.440E+02 3.669E-03 9.973E-03
 scprqt: <Vxc>= -1.4609322E-01 hartree
 
 Pulay update with  5 previous iterations:
 mixing of old trial potential: alpha(m:m-4)=   1.41     -0.335     -0.266E-01 -0.193E-01 -0.247E-01
{SCF_istep: 6 , Vnl|psi>: 1491 , wall_time: '  4.67 [s] '} <<< TIME
 
 ITER STEP NUMBER     7
 Total charge density [el/Bohr^3]
)     Maximum=    9.3664E-01  at reduced coord.    0.2500    0.7500    0.0000
)     Minimum=    0.0000E+00  at reduced coord.    0.0938    0.0000    0.3889
   Integrated=    2.6000E+01
 ETOT  7  -92.381695657683    -1.640E-04 1.603E-05 1.089E+02 1.457E-03 1.143E-02
 scprqt: <Vxc>= -1.4583644E-01 hartree
 
 Pulay update with  6 previous iterations:
 mixing of old trial potential: alpha(m:m-4)=   1.02      0.234     -0.182     -0.696E-01  0.493E-02
{SCF_istep: 7 , Vnl|psi>: 1473 , wall_time: '  4.62 [s] '} <<< TIME
 
 ITER STEP NUMBER     8
 Total charge density [el/Bohr^3]
)     Maximum=    9.3655E-01  at reduced coord.    0.2500    0.7500    0.0000
)     Minimum=    0.0000E+00  at reduced coord.    0.0000    0.0000    0.3889
   Integrated=    2.6000E+01
 ETOT  8  -92.381749092624    -5.343E-05 3.321E-05 9.110E+01 5.673E-04 1.200E-02
 scprqt: <Vxc>= -1.4567481E-01 hartree
 
 Pulay update with  7 previous iterations:
 mixing of old trial potential: alpha(m:m-4)=   1.06      0.253     -0.279      0.117E-01 -0.611E-01
{SCF_istep: 8 , Vnl|psi>: 1492 , wall_time: '  4.60 [s] '} <<< TIME
 
 ITER STEP NUMBER     9
 Total charge density [el/Bohr^3]
)     Maximum=    9.3656E-01  at reduced coord.    0.2500    0.7500    0.0000
)     Minimum=    0.0000E+00  at reduced coord.    0.0000    0.0000    0.3843
   Integrated=    2.6000E+01
 ETOT  9  -92.381785702718    -3.661E-05 5.474E-06 7.526E+01 4.557E-04 1.245E-02
 scprqt: <Vxc>= -1.4554218E-01 hartree
 
 Pulay update with  7 previous iterations:
 mixing of old trial potential: alpha(m:m-4)=   1.36     -0.467E-01 -0.242     -0.115      0.583E-01
{SCF_istep: 9 , Vnl|psi>: 1467 , wall_time: '  4.53 [s] '} <<< TIME
 
 ITER STEP NUMBER    10
 Total charge density [el/Bohr^3]
)     Maximum=    9.3665E-01  at reduced coord.    0.2500    0.7500    0.0000
)     Minimum=    0.0000E+00  at reduced coord.    0.0000    0.0000    0.3843
   Integrated=    2.6000E+01
 ETOT 10  -92.381813444034    -2.774E-05 1.097E-05 6.011E+01 4.692E-04 1.292E-02
 scprqt: <Vxc>= -1.4541686E-01 hartree
 
 Pulay update with  7 previous iterations:
 mixing of old trial potential: alpha(m:m-4)=   1.25      0.276     -0.158     -0.400     -0.573E-01
{SCF_istep: 10 , Vnl|psi>: 1494 , wall_time: '  4.61 [s] '} <<< TIME
 
 ITER STEP NUMBER    11
 Total charge density [el/Bohr^3]
)     Maximum=    9.3673E-01  at reduced coord.    0.2500    0.7500    0.0000
)     Minimum=    0.0000E+00  at reduced coord.    0.0000    0.0000    0.3796
   Integrated=    2.6000E+01
 ETOT 11  -92.381834957442    -2.151E-05 2.440E-06 4.484E+01 5.341E-04 1.346E-02
 scprqt: <Vxc>= -1.4528315E-01 hartree
 
 Pulay update with  7 previous iterations:
 mixing of old trial potential: alpha(m:m-4)=  0.427      0.631      0.316     -0.137     -0.165
{SCF_istep: 11 , Vnl|psi>: 1486 , wall_time: '  4.59 [s] '} <<< TIME
 
 ITER STEP NUMBER    12
 Total charge density [el/Bohr^3]
)     Maximum=    9.3686E-01  at reduced coord.    0.2500    0.7500    0.0000
)     Minimum=    0.0000E+00  at reduced coord.    0.0000    0.0000    0.3796
   Integrated=    2.6000E+01
 ETOT 12  -92.381839888523    -4.931E-06 3.825E-06 4.174E+01 2.701E-04 1.373E-02
 scprqt: <Vxc>= -1.4525929E-01 hartree
 
 Pulay update with  7 previous iterations:
 mixing of old trial potential: alpha(m:m-4)=   1.04     -0.265      0.295      0.198     -0.132
{SCF_istep: 12 , Vnl|psi>: 1459 , wall_time: '  4.54 [s] '} <<< TIME
 
 ITER STEP NUMBER    13
 Total charge density [el/Bohr^3]
)     Maximum=    9.3672E-01  at reduced coord.    0.2500    0.7500    0.0000
)     Minimum=    0.0000E+00  at reduced coord.    0.0000    0.0000    0.3796
   Integrated=    2.6000E+01
 ETOT 13  -92.381839577023     3.115E-07 2.038E-06 3.880E+01 1.903E-04 1.354E-02
 scprqt: <Vxc>= -1.4523155E-01 hartree
 
 Pulay update with  7 previous iterations:
 mixing of old trial potential: alpha(m:m-4)=   1.12      0.973E-01 -0.574      0.401      0.176
{SCF_istep: 13 , Vnl|psi>: 1458 , wall_time: '  4.65 [s] '} <<< TIME
 
 ITER STEP NUMBER    14
 Total charge density [el/Bohr^3]
)     Maximum=    9.3670E-01  at reduced coord.    0.2500    0.7500    0.0000
)     Minimum=    0.0000E+00  at reduced coord.    0.0000    0.0000    0.3796
   Integrated=    2.6000E+01
 ETOT 14  -92.381840915705    -1.339E-06 3.203E-06 3.651E+01 7.685E-05 1.361E-02
 scprqt: <Vxc>= -1.4522035E-01 hartree
 
 Pulay update with  7 previous iterations:
 mixing of old trial potential: alpha(m:m-4)=   1.60      0.795      0.249      -1.08     -0.495
{SCF_istep: 14 , Vnl|psi>: 1494 , wall_time: '  4.67 [s] '} <<< TIME
 
 ITER STEP NUMBER    15
 Total charge density [el/Bohr^3]
)     Maximum=    9.3654E-01  at reduced coord.    0.2500    0.7500    0.0000
)     Minimum=    0.0000E+00  at reduced coord.    0.0000    0.0000    0.3796
   Integrated=    2.6000E+01
 ETOT 15  -92.381843244389    -2.329E-06 2.311E-06 2.375E+01 3.266E-05 1.358E-02
 scprqt: <Vxc>= -1.4510794E-01 hartree
 
 Pulay update with  7 previous iterations:
 mixing of old trial potential: alpha(m:m-4)=  0.263      0.642      0.576      0.514     -0.721
{SCF_istep: 15 , Vnl|psi>: 1455 , wall_time: '  4.56 [s] '} <<< TIME
 
 ITER STEP NUMBER    16
 Total charge density [el/Bohr^3]
)     Maximum=    9.3662E-01  at reduced coord.    0.2500    0.7500    0.0000
)     Minimum=    0.0000E+00  at reduced coord.    0.0000    0.0000    0.3796
   Integrated=    2.6000E+01
 ETOT 16  -92.381847557194    -4.313E-06 5.992E-06 2.415E+01 2.147E-04 1.379E-02
 scprqt: <Vxc>= -1.4510531E-01 hartree
 
 Pulay update with  7 previous iterations:
 mixing of old trial potential: alpha(m:m-4)=  0.794     -0.263      0.640      0.237      0.556
{SCF_istep: 16 , Vnl|psi>: 1470 , wall_time: '  4.55 [s] '} <<< TIME
 
 ITER STEP NUMBER    17
 Total charge density [el/Bohr^3]
)     Maximum=    9.3661E-01  at reduced coord.    0.2500    0.7500    0.0000
)     Minimum=    0.0000E+00  at reduced coord.    0.0000    0.0000    0.3796
   Integrated=    2.6000E+01
 ETOT 17  -92.381847463719     9.347E-08 3.191E-06 2.351E+01 1.575E-05 1.378E-02
 scprqt: <Vxc>= -1.4510151E-01 hartree
 
 Pulay update with  7 previous iterations:
 mixing of old trial potential: alpha(m:m-4)=   1.58     -0.481E-01 -0.543     -0.113      0.329
{SCF_istep: 17 , Vnl|psi>: 1481 , wall_time: '  4.60 [s] '} <<< TIME
 
 ITER STEP NUMBER    18
 Total charge density [el/Bohr^3]
)     Maximum=    9.3677E-01  at reduced coord.    0.2500    0.7500    0.0000
)     Minimum=    0.0000E+00  at reduced coord.    0.1563    0.3750    0.3750
   Integrated=    2.6000E+01
 ETOT 18  -92.381852659699    -5.196E-06 9.334E-06 1.882E+01 3.787E-04 1.416E-02
 scprqt: <Vxc>= -1.4505556E-01 hartree
 
 Pulay update with  7 previous iterations:
 mixing of old trial potential: alpha(m:m-4)=  0.641      0.541      0.520     -0.538     -0.246
{SCF_istep: 18 , Vnl|psi>: 1455 , wall_time: '  4.55 [s] '} <<< TIME
 
 ITER STEP NUMBER    19
 Total charge density [el/Bohr^3]
)     Maximum=    9.3671E-01  at reduced coord.    0.2500    0.7500    0.0000
)     Minimum=    0.0000E+00  at reduced coord.    0.2188    0.3438    0.3750
   Integrated=    2.6000E+01
 ETOT 19  -92.381852236069     4.236E-07 4.467E-06 1.764E+01 8.611E-05 1.407E-02
 scprqt: <Vxc>= -1.4505136E-01 hartree
 
 Pulay update with  7 previous iterations:
 mixing of old trial potential: alpha(m:m-4)=   2.81      -1.20      -2.23       1.33      0.498
{SCF_istep: 19 , Vnl|psi>: 1461 , wall_time: '  4.50 [s] '} <<< TIME
 
 ITER STEP NUMBER    20
 Total charge density [el/Bohr^3]
)     Maximum=    9.3684E-01  at reduced coord.    0.2500    0.7500    0.0000
)     Minimum=    0.0000E+00  at reduced coord.    0.0000    0.0000    0.3750
   Integrated=    2.6000E+01
 ETOT 20  -92.381854151694    -1.916E-06 1.395E-05 1.133E+01 3.126E-04 1.438E-02
 scprqt: <Vxc>= -1.4499822E-01 hartree
 
 Pulay update with  7 previous iterations:
 mixing of old trial potential: alpha(m:m-4)=  0.600E-01   2.58      -1.01      -2.19       1.19
 
 -------------------------------------------------------------------------------------------------
 Ekinetic   = :     2.991767E+01 Ha ,    8.141013E+02 eV
 Evext_l    = :    -6.039905E+02 Ha ,   -1.643542E+04 eV
 Evext_nl   = :     1.160232E+01 Ha ,    3.157152E+02 eV
 Epsp_core  = :     7.631172E-01 Ha ,    2.076547E+01 eV
 Ehartree   = :     2.811067E+02 Ha ,    7.649302E+03 eV
 Exc_ks     = :    -1.658604E+01 Ha ,   -4.513290E+02 eV
 Enn        = :     2.048049E+02 Ha ,    5.573025E+03 eV
 -------------------------------------------------------------------------------------------------
 Etot       = :    -9.238185E+01 Ha ,   -2.513838E+03 eV
 -------------------------------------------------------------------------------------------------
 
 Cartesian components of stress tensor (hartree/bohr^3)
  sigma(1 1)= -5.62936008E-06  sigma(3 2)= -6.16775590E-11
  sigma(2 2)= -4.71240177E-06  sigma(3 1)= -4.75882062E-10
  sigma(3 3)=  8.16236314E-05  sigma(2 1)= -1.66839346E-10
 

--- !ScfConvergenceWarning
message: |
    nstep 20 was not enough SCF cycles to converge.
...
 
 scprqt:  WARNING -
  nstep=   20 was not enough SCF cycles to converge;
  maximum force difference=  3.126E-04 exceeds toldff=  5.000E-05
 
 
 fftdatar_write: About to write data to: mos2_ecut_ko_DS63_TIM4_DEN with iomode: IO_MODE_FORTRAN
 IO operation , wall:  0.01 [s] , cpu:  0.00 [s] <<< TIME
- Creating HDf5 file with MPI-IO support: mos2_ecut_ko_DS63_GSR.nc
 Integrated electronic density in atomic spheres:
 ------------------------------------------------
 Atom  Sphere_radius  Integrated_density
    1        2.00000         10.48935440
    2        2.00000          3.90520741
    3        2.00000          3.90520679
 Write iteration in HIST netCDF file
 
---OUTPUT-----------------------------------------------------------------------
 
 Cartesian coordinates (xcart) [bohr]
  2.97631761081231E+00  1.71862989564543E+00 -1.09761604561290E-06
  2.97632017477461E+00 -1.71850400673848E+00 -3.05606178248145E+00
  2.97631819229774E+00 -1.71850426803616E+00  3.05606288009750E+00
 Reduced coordinates (xred)
  3.33308762440954E-01  6.66690885284073E-01 -2.90416697560514E-08
  6.66679105962022E-01  3.33321403217233E-01 -8.08599121666057E-02
  6.66678798263690E-01  3.33321044832027E-01  8.08599412082755E-02
 Cartesian forces (fcart) [Ha/bohr]; max,rms= 1.43842E-02 6.78065E-03 (free atoms)
 -9.00752456761935E-09 -1.27377702534467E-05  4.78502910636209E-07
 -1.10158519878363E-06  6.35679201632828E-06  1.43836809019569E-02
  1.11059272335125E-06  6.38097823711842E-06 -1.43841594048676E-02
 Gradient of E wrt nuclear positions in reduced coordinates (gred)
 -6.56381177420691E-05  6.56917362689584E-05 -1.80847890978217E-05
  3.60487904663817E-05 -2.94914533024962E-05 -5.43624353750323E-01
  2.95893272756874E-05 -3.62002829664623E-05  5.43642438539420E-01
 Total energy (etotal) [Ha]= -9.23818541516938E+01
 
 Difference of energy with previous step (new-old):
           Absolute (Ha)=-1.24240E-02
           Relative     =-1.34495E-04
 fconv : at Broyd/MD step   4, gradients have not converged yet. 
  max grad (force/stress) = 1.4384E-02 > tolmxf= 5.0000E-04 ha/bohr (free atoms)
 
 EXIT:           1           1
 {mover_itime: 4 , wall_time: ' 01:45 [minutes] '} <<< TIME
 
--- Iteration: ( 5/10) Internal Cycle: (1/1)
--------------------------------------------------------------------------------
 
 Cartesian coordinates (xcart) [bohr]
  2.97631749293012E+00  1.71864762552434E+00 -7.15875253983687E-07
  2.97631949804584E+00 -1.71851285754663E+00 -2.98963415691099E+00
  2.97631898690871E+00 -1.71851314710690E+00  2.98963487278624E+00
 Reduced coordinates (xred)
  3.33307023004802E-01  6.66692585113513E-01 -1.89412434300872E-08
  6.66679850722280E-01  3.33320431085902E-01 -7.91023128929737E-02
  6.66679792939585E-01  3.33320317133918E-01  7.91023318342171E-02
 
---SELF-CONSISTENT-FIELD CONVERGENCE--------------------------------------------
 
 getcut: wavevector=  0.0000  0.0000  0.0000  ngfft=  32  32 216
         ecut(hartree)=     35.000   => boxcut(ratio)=   2.01856
 
 ITER STEP NUMBER     1
 Max number of non-self-consistent loops: 2
 Total charge density [el/Bohr^3]
)     Maximum=    9.4400E-01  at reduced coord.    0.2500    0.7500    0.0000
)     Minimum=    0.0000E+00  at reduced coord.    0.0000    0.0000    0.3704
   Integrated=    2.6000E+01
 ETOT  1  -92.371064364344    -9.237E+01 2.152E-04 5.851E+02 3.493E-02 4.931E-02
 scprqt: <Vxc>= -1.4326007E-01 hartree
 
 Simple mixing update:
  residual square of the potential:    173.368778057374
{SCF_istep: 1 , Vnl|psi>: 4418 , wall_time: ' 10.77 [s] '} <<< TIME
 
 ITER STEP NUMBER     2
 Max number of non-self-consistent loops: 2
 Total charge density [el/Bohr^3]
)     Maximum=    9.2484E-01  at reduced coord.    0.2500    0.5000    0.0000
)     Minimum=    0.0000E+00  at reduced coord.    0.1875    0.0625    0.3657
   Integrated=    2.6000E+01
 ETOT  2  -92.369722196299     1.342E-03 5.387E-05 1.483E+02 7.104E-02 2.172E-02
 scprqt: <Vxc>= -1.4368480E-01 hartree
 
 Pulay update with  1 previous iterations:
 mixing of old trial potential: alpha(m:m-4)=  0.858      0.142
{SCF_istep: 2 , Vnl|psi>: 2754 , wall_time: '  8.50 [s] '} <<< TIME
 
 ITER STEP NUMBER     3
 Total charge density [el/Bohr^3]
)     Maximum=    9.6218E-01  at reduced coord.    0.2500    0.7500    0.0000
)     Minimum=    0.0000E+00  at reduced coord.    0.0000    0.0000    0.3750
   Integrated=    2.6000E+01
 ETOT  3  -92.349456674881     2.027E-02 6.383E-04 6.348E+02 6.400E-02 4.227E-02
 scprqt: <Vxc>= -1.4343316E-01 hartree
 
 Pulay update with  2 previous iterations:
 mixing of old trial potential: alpha(m:m-4)=  0.400      0.601     -0.143E-02
{SCF_istep: 3 , Vnl|psi>: 1460 , wall_time: '  4.50 [s] '} <<< TIME
 
 ITER STEP NUMBER     4
