
.Version 9.10.3 of ABINIT 
.(MPI version, prepared for a x86_64_linux_intel2021.6 computer) 

.Copyright (C) 1998-2022 ABINIT group . 
 ABINIT comes with ABSOLUTELY NO WARRANTY.
 It is free software, and you are welcome to redistribute it
 under certain conditions (GNU General Public License,
 see ~abinit/COPYING or http://www.gnu.org/copyleft/gpl.txt).

 ABINIT is a project of the Universite Catholique de Louvain,
 Corning Inc. and other collaborators, see ~abinit/doc/developers/contributors.txt .
 Please read https://docs.abinit.org/theory/acknowledgments for suggested
 acknowledgments of the ABINIT effort.
 For more information, see https://www.abinit.org .

.Starting date : Wed  7 May 2025.
- ( at 09h16 )
  
- input  file    -> mos2_ecut_k.abi
- output file    -> mos2_ecut_k.abo
- root for input  files -> mos2_ecut_ki
- root for output files -> mos2_ecut_ko
 
 
 DATASET   11 : space group P1 (#  1); Bravais aP (primitive triclinic)
================================================================================
 Values of the parameters that define the memory need for DATASET 11.
     intxc =       0    ionmov =       2      iscf =       7    lmnmax =       6
     lnmax =       6     mgfft =     108  mpssoang =       3    mqgrid =    5381
     natom =       3  nloc_mem =       1    nspden =       1   nspinor =       1
    nsppol =       1      nsym =       1    n1xccc =    2501    ntypat =       2
    occopt =       1   xclevel =       2
-    mband =          14        mffmem =           1         mkmem =           2
       mpw =        1738          nfft =       34992          nkpt =           2
================================================================================
P This job should need less than                      13.039 Mbytes of memory.
  Rough estimation (10% accuracy) of disk space for files :
_ WF disk file :      0.745 Mbytes ; DEN or POT disk file :      0.269 Mbytes.
================================================================================
 
 
 DATASET   12 : space group P1 (#  1); Bravais aP (primitive triclinic)
================================================================================
 Values of the parameters that define the memory need for DATASET 12.
     intxc =       0    ionmov =       2      iscf =       7    lmnmax =       6
     lnmax =       6     mgfft =     108  mpssoang =       3    mqgrid =    5381
     natom =       3  nloc_mem =       1    nspden =       1   nspinor =       1
    nsppol =       1      nsym =       1    n1xccc =    2501    ntypat =       2
    occopt =       1   xclevel =       2
-    mband =          14        mffmem =           1         mkmem =           8
       mpw =        1758          nfft =       34992          nkpt =           8
================================================================================
P This job should need less than                      15.442 Mbytes of memory.
  Rough estimation (10% accuracy) of disk space for files :
_ WF disk file :      3.006 Mbytes ; DEN or POT disk file :      0.269 Mbytes.
================================================================================
 
 
 DATASET   13 : space group P1 (#  1); Bravais aP (primitive triclinic)
================================================================================
 Values of the parameters that define the memory need for DATASET 13.
     intxc =       0    ionmov =       2      iscf =       7    lmnmax =       6
     lnmax =       6     mgfft =     108  mpssoang =       3    mqgrid =    5381
     natom =       3  nloc_mem =       1    nspden =       1   nspinor =       1
    nsppol =       1      nsym =       1    n1xccc =    2501    ntypat =       2
    occopt =       1   xclevel =       2
-    mband =          14        mffmem =           1         mkmem =          18
       mpw =        1768          nfft =       34992          nkpt =          18
================================================================================
P This job should need less than                      19.467 Mbytes of memory.
  Rough estimation (10% accuracy) of disk space for files :
_ WF disk file :      6.800 Mbytes ; DEN or POT disk file :      0.269 Mbytes.
================================================================================
 
 
 DATASET   21 : space group P1 (#  1); Bravais aP (primitive triclinic)
================================================================================
 Values of the parameters that define the memory need for DATASET 21.
     intxc =       0    ionmov =       2      iscf =       7    lmnmax =       6
     lnmax =       6     mgfft =     135  mpssoang =       3    mqgrid =    6590
     natom =       3  nloc_mem =       1    nspden =       1   nspinor =       1
    nsppol =       1      nsym =       1    n1xccc =    2501    ntypat =       2
    occopt =       1   xclevel =       2
-    mband =          14        mffmem =           1         mkmem =           2
       mpw =        3224          nfft =       77760          nkpt =           2
================================================================================
P This job should need less than                      26.708 Mbytes of memory.
  Rough estimation (10% accuracy) of disk space for files :
_ WF disk file :      1.379 Mbytes ; DEN or POT disk file :      0.595 Mbytes.
================================================================================
 
 
 DATASET   22 : space group P1 (#  1); Bravais aP (primitive triclinic)
================================================================================
 Values of the parameters that define the memory need for DATASET 22.
     intxc =       0    ionmov =       2      iscf =       7    lmnmax =       6
     lnmax =       6     mgfft =     135  mpssoang =       3    mqgrid =    6590
     natom =       3  nloc_mem =       1    nspden =       1   nspinor =       1
    nsppol =       1      nsym =       1    n1xccc =    2501    ntypat =       2
    occopt =       1   xclevel =       2
-    mband =          14        mffmem =           1         mkmem =           8
       mpw =        3240          nfft =       77760          nkpt =           8
================================================================================
P This job should need less than                      31.093 Mbytes of memory.
  Rough estimation (10% accuracy) of disk space for files :
_ WF disk file :      5.539 Mbytes ; DEN or POT disk file :      0.595 Mbytes.
================================================================================
 
 
 DATASET   23 : space group P1 (#  1); Bravais aP (primitive triclinic)
================================================================================
 Values of the parameters that define the memory need for DATASET 23.
     intxc =       0    ionmov =       2      iscf =       7    lmnmax =       6
     lnmax =       6     mgfft =     135  mpssoang =       3    mqgrid =    6590
     natom =       3  nloc_mem =       1    nspden =       1   nspinor =       1
    nsppol =       1      nsym =       1    n1xccc =    2501    ntypat =       2
    occopt =       1   xclevel =       2
-    mband =          14        mffmem =           1         mkmem =          18
       mpw =        3240          nfft =       77760          nkpt =          18
================================================================================
P This job should need less than                      38.388 Mbytes of memory.
  Rough estimation (10% accuracy) of disk space for files :
_ WF disk file :     12.460 Mbytes ; DEN or POT disk file :      0.595 Mbytes.
================================================================================
 
 
 DATASET   31 : space group P1 (#  1); Bravais aP (primitive triclinic)
================================================================================
 Values of the parameters that define the memory need for DATASET 31.
     intxc =       0    ionmov =       2      iscf =       7    lmnmax =       6
     lnmax =       6     mgfft =     160  mpssoang =       3    mqgrid =    7609
     natom =       3  nloc_mem =       1    nspden =       1   nspinor =       1
    nsppol =       1      nsym =       1    n1xccc =    2501    ntypat =       2
    occopt =       1   xclevel =       2
-    mband =          14        mffmem =           1         mkmem =           2
       mpw =        4986          nfft =       92160          nkpt =           2
================================================================================
P This job should need less than                      32.234 Mbytes of memory.
  Rough estimation (10% accuracy) of disk space for files :
_ WF disk file :      2.132 Mbytes ; DEN or POT disk file :      0.705 Mbytes.
================================================================================
 
 
 DATASET   32 : space group P1 (#  1); Bravais aP (primitive triclinic)
================================================================================
 Values of the parameters that define the memory need for DATASET 32.
     intxc =       0    ionmov =       2      iscf =       7    lmnmax =       6
     lnmax =       6     mgfft =     160  mpssoang =       3    mqgrid =    7609
     natom =       3  nloc_mem =       1    nspden =       1   nspinor =       1
    nsppol =       1      nsym =       1    n1xccc =    2501    ntypat =       2
    occopt =       1   xclevel =       2
-    mband =          14        mffmem =           1         mkmem =           8
       mpw =        4992          nfft =       92160          nkpt =           8
================================================================================
P This job should need less than                      38.995 Mbytes of memory.
  Rough estimation (10% accuracy) of disk space for files :
_ WF disk file :      8.533 Mbytes ; DEN or POT disk file :      0.705 Mbytes.
================================================================================
 
 
 DATASET   33 : space group P1 (#  1); Bravais aP (primitive triclinic)
================================================================================
 Values of the parameters that define the memory need for DATASET 33.
     intxc =       0    ionmov =       2      iscf =       7    lmnmax =       6
     lnmax =       6     mgfft =     160  mpssoang =       3    mqgrid =    7609
     natom =       3  nloc_mem =       1    nspden =       1   nspinor =       1
    nsppol =       1      nsym =       1    n1xccc =    2501    ntypat =       2
    occopt =       1   xclevel =       2
-    mband =          14        mffmem =           1         mkmem =          18
       mpw =        4992          nfft =       92160          nkpt =          18
================================================================================
P This job should need less than                      50.255 Mbytes of memory.
  Rough estimation (10% accuracy) of disk space for files :
_ WF disk file :     19.197 Mbytes ; DEN or POT disk file :      0.705 Mbytes.
================================================================================
 
 
 DATASET   41 : space group P1 (#  1); Bravais aP (primitive triclinic)
================================================================================
 Values of the parameters that define the memory need for DATASET 41.
     intxc =       0    ionmov =       2      iscf =       7    lmnmax =       6
     lnmax =       6     mgfft =     180  mpssoang =       3    mqgrid =    8507
     natom =       3  nloc_mem =       1    nspden =       1   nspinor =       1
    nsppol =       1      nsym =       1    n1xccc =    2501    ntypat =       2
    occopt =       1   xclevel =       2
-    mband =          14        mffmem =           1         mkmem =           2
       mpw =        6930          nfft =      162000          nkpt =           2
================================================================================
P This job should need less than                      53.960 Mbytes of memory.
  Rough estimation (10% accuracy) of disk space for files :
_ WF disk file :      2.963 Mbytes ; DEN or POT disk file :      1.238 Mbytes.
================================================================================
 
 
 DATASET   42 : space group P1 (#  1); Bravais aP (primitive triclinic)
================================================================================
 Values of the parameters that define the memory need for DATASET 42.
     intxc =       0    ionmov =       2      iscf =       7    lmnmax =       6
     lnmax =       6     mgfft =     180  mpssoang =       3    mqgrid =    8507
     natom =       3  nloc_mem =       1    nspden =       1   nspinor =       1
    nsppol =       1      nsym =       1    n1xccc =    2501    ntypat =       2
    occopt =       1   xclevel =       2
-    mband =          14        mffmem =           1         mkmem =           8
       mpw =        6962          nfft =      162000          nkpt =           8
================================================================================
P This job should need less than                      63.377 Mbytes of memory.
  Rough estimation (10% accuracy) of disk space for files :
_ WF disk file :     11.900 Mbytes ; DEN or POT disk file :      1.238 Mbytes.
================================================================================
 
 
 DATASET   43 : space group P1 (#  1); Bravais aP (primitive triclinic)
================================================================================
 Values of the parameters that define the memory need for DATASET 43.
     intxc =       0    ionmov =       2      iscf =       7    lmnmax =       6
     lnmax =       6     mgfft =     180  mpssoang =       3    mqgrid =    8507
     natom =       3  nloc_mem =       1    nspden =       1   nspinor =       1
    nsppol =       1      nsym =       1    n1xccc =    2501    ntypat =       2
    occopt =       1   xclevel =       2
-    mband =          14        mffmem =           1         mkmem =          18
       mpw =        6980          nfft =      162000          nkpt =          18
================================================================================
P This job should need less than                      79.123 Mbytes of memory.
  Rough estimation (10% accuracy) of disk space for files :
_ WF disk file :     26.842 Mbytes ; DEN or POT disk file :      1.238 Mbytes.
================================================================================
 
 
 DATASET   51 : space group P1 (#  1); Bravais aP (primitive triclinic)
================================================================================
 Values of the parameters that define the memory need for DATASET 51.
     intxc =       0    ionmov =       2      iscf =       7    lmnmax =       6
     lnmax =       6     mgfft =     192  mpssoang =       3    mqgrid =    9319
     natom =       3  nloc_mem =       1    nspden =       1   nspinor =       1
    nsppol =       1      nsym =       1    n1xccc =    2501    ntypat =       2
    occopt =       1   xclevel =       2
-    mband =          14        mffmem =           1         mkmem =           2
       mpw =        9128          nfft =      172800          nkpt =           2
================================================================================
P This job should need less than                      58.597 Mbytes of memory.
  Rough estimation (10% accuracy) of disk space for files :
_ WF disk file :      3.902 Mbytes ; DEN or POT disk file :      1.320 Mbytes.
================================================================================
 
 
 DATASET   52 : space group P1 (#  1); Bravais aP (primitive triclinic)
================================================================================
 Values of the parameters that define the memory need for DATASET 52.
     intxc =       0    ionmov =       2      iscf =       7    lmnmax =       6
     lnmax =       6     mgfft =     192  mpssoang =       3    mqgrid =    9319
     natom =       3  nloc_mem =       1    nspden =       1   nspinor =       1
    nsppol =       1      nsym =       1    n1xccc =    2501    ntypat =       2
    occopt =       1   xclevel =       2
-    mband =          14        mffmem =           1         mkmem =           8
       mpw =        9158          nfft =      172800          nkpt =           8
================================================================================
P This job should need less than                      71.001 Mbytes of memory.
  Rough estimation (10% accuracy) of disk space for files :
_ WF disk file :     15.653 Mbytes ; DEN or POT disk file :      1.320 Mbytes.
================================================================================
 
 
 DATASET   53 : space group P1 (#  1); Bravais aP (primitive triclinic)
================================================================================
 Values of the parameters that define the memory need for DATASET 53.
     intxc =       0    ionmov =       2      iscf =       7    lmnmax =       6
     lnmax =       6     mgfft =     192  mpssoang =       3    mqgrid =    9319
     natom =       3  nloc_mem =       1    nspden =       1   nspinor =       1
    nsppol =       1      nsym =       1    n1xccc =    2501    ntypat =       2
    occopt =       1   xclevel =       2
-    mband =          14        mffmem =           1         mkmem =          18
       mpw =        9160          nfft =      172800          nkpt =          18
================================================================================
P This job should need less than                      91.646 Mbytes of memory.
  Rough estimation (10% accuracy) of disk space for files :
_ WF disk file :     35.224 Mbytes ; DEN or POT disk file :      1.320 Mbytes.
================================================================================
 
 
 DATASET   61 : space group P1 (#  1); Bravais aP (primitive triclinic)
================================================================================
 Values of the parameters that define the memory need for DATASET 61.
     intxc =       0    ionmov =       2      iscf =       7    lmnmax =       6
     lnmax =       6     mgfft =     216  mpssoang =       3    mqgrid =   10066
     natom =       3  nloc_mem =       1    nspden =       1   nspinor =       1
    nsppol =       1      nsym =       1    n1xccc =    2501    ntypat =       2
    occopt =       1   xclevel =       2
-    mband =          14        mffmem =           1         mkmem =           2
       mpw =       11496          nfft =      221184          nkpt =           2
================================================================================
P This job should need less than                      74.266 Mbytes of memory.
  Rough estimation (10% accuracy) of disk space for files :
_ WF disk file :      4.914 Mbytes ; DEN or POT disk file :      1.690 Mbytes.
================================================================================
 
 
 DATASET   62 : space group P1 (#  1); Bravais aP (primitive triclinic)
================================================================================
 Values of the parameters that define the memory need for DATASET 62.
     intxc =       0    ionmov =       2      iscf =       7    lmnmax =       6
     lnmax =       6     mgfft =     216  mpssoang =       3    mqgrid =   10066
     natom =       3  nloc_mem =       1    nspden =       1   nspinor =       1
    nsppol =       1      nsym =       1    n1xccc =    2501    ntypat =       2
    occopt =       1   xclevel =       2
-    mband =          14        mffmem =           1         mkmem =           8
       mpw =       11526          nfft =      221184          nkpt =           8
================================================================================
P This job should need less than                      89.867 Mbytes of memory.
  Rough estimation (10% accuracy) of disk space for files :
_ WF disk file :     19.700 Mbytes ; DEN or POT disk file :      1.690 Mbytes.
================================================================================
 
 
 DATASET   63 : space group P1 (#  1); Bravais aP (primitive triclinic)
================================================================================
 Values of the parameters that define the memory need for DATASET 63.
     intxc =       0    ionmov =       2      iscf =       7    lmnmax =       6
     lnmax =       6     mgfft =     216  mpssoang =       3    mqgrid =   10066
     natom =       3  nloc_mem =       1    nspden =       1   nspinor =       1
    nsppol =       1      nsym =       1    n1xccc =    2501    ntypat =       2
    occopt =       1   xclevel =       2
-    mband =          14        mffmem =           1         mkmem =          18
       mpw =       11518          nfft =      221184          nkpt =          18
================================================================================
P This job should need less than                     115.798 Mbytes of memory.
  Rough estimation (10% accuracy) of disk space for files :
_ WF disk file :     44.291 Mbytes ; DEN or POT disk file :      1.690 Mbytes.
================================================================================
 
--------------------------------------------------------------------------------
------------- Echo of variables that govern the present computation ------------
--------------------------------------------------------------------------------
-
- outvars: echo of selected default values                                      
-   iomode0 =  0 , fftalg0 =512 , wfoptalg0 =  0
-
- outvars: echo of global parameters not present in the input file              
-  max_nthreads =    0
-
 -outvars: echo values of preprocessed input variables --------
            acell      5.9526373186E+00  5.9526373186E+00  3.7794522658E+01 Bohr
              amu      9.59400000E+01  3.20660000E+01
      chksymbreak           0
             ecut11    1.00000000E+01 Hartree
             ecut12    1.00000000E+01 Hartree
             ecut13    1.00000000E+01 Hartree
             ecut21    1.50000000E+01 Hartree
             ecut22    1.50000000E+01 Hartree
             ecut23    1.50000000E+01 Hartree
             ecut31    2.00000000E+01 Hartree
             ecut32    2.00000000E+01 Hartree
             ecut33    2.00000000E+01 Hartree
             ecut41    2.50000000E+01 Hartree
             ecut42    2.50000000E+01 Hartree
             ecut43    2.50000000E+01 Hartree
             ecut51    3.00000000E+01 Hartree
             ecut52    3.00000000E+01 Hartree
             ecut53    3.00000000E+01 Hartree
             ecut61    3.50000000E+01 Hartree
             ecut62    3.50000000E+01 Hartree
             ecut63    3.50000000E+01 Hartree
-          fftalg         512
           ionmov           2
              ixc          11
           jdtset       11   12   13   21   22   23   31   32   33   41
                        42   43   51   52   53   61   62   63
              kpt11    2.50000000E-01  2.50000000E-01  5.00000000E-01
                      -2.50000000E-01  2.50000000E-01  5.00000000E-01
              kpt12    1.25000000E-01  1.25000000E-01  5.00000000E-01
                       3.75000000E-01  1.25000000E-01  5.00000000E-01
                      -3.75000000E-01  1.25000000E-01  5.00000000E-01
                      -1.25000000E-01  1.25000000E-01  5.00000000E-01
                       1.25000000E-01  3.75000000E-01  5.00000000E-01
                       3.75000000E-01  3.75000000E-01  5.00000000E-01
                      -3.75000000E-01  3.75000000E-01  5.00000000E-01
                      -1.25000000E-01  3.75000000E-01  5.00000000E-01
              kpt13    8.33333333E-02  8.33333333E-02  5.00000000E-01
                       2.50000000E-01  8.33333333E-02  5.00000000E-01
                       4.16666667E-01  8.33333333E-02  5.00000000E-01
                      -4.16666667E-01  8.33333333E-02  5.00000000E-01
                      -2.50000000E-01  8.33333333E-02  5.00000000E-01
                      -8.33333333E-02  8.33333333E-02  5.00000000E-01
                       8.33333333E-02  2.50000000E-01  5.00000000E-01
                       2.50000000E-01  2.50000000E-01  5.00000000E-01
                       4.16666667E-01  2.50000000E-01  5.00000000E-01
                      -4.16666667E-01  2.50000000E-01  5.00000000E-01
                      -2.50000000E-01  2.50000000E-01  5.00000000E-01
                      -8.33333333E-02  2.50000000E-01  5.00000000E-01
                       8.33333333E-02  4.16666667E-01  5.00000000E-01
                       2.50000000E-01  4.16666667E-01  5.00000000E-01
                       4.16666667E-01  4.16666667E-01  5.00000000E-01
                      -4.16666667E-01  4.16666667E-01  5.00000000E-01
                      -2.50000000E-01  4.16666667E-01  5.00000000E-01
                      -8.33333333E-02  4.16666667E-01  5.00000000E-01
              kpt21    2.50000000E-01  2.50000000E-01  5.00000000E-01
                      -2.50000000E-01  2.50000000E-01  5.00000000E-01
              kpt22    1.25000000E-01  1.25000000E-01  5.00000000E-01
                       3.75000000E-01  1.25000000E-01  5.00000000E-01
                      -3.75000000E-01  1.25000000E-01  5.00000000E-01
                      -1.25000000E-01  1.25000000E-01  5.00000000E-01
                       1.25000000E-01  3.75000000E-01  5.00000000E-01
                       3.75000000E-01  3.75000000E-01  5.00000000E-01
                      -3.75000000E-01  3.75000000E-01  5.00000000E-01
                      -1.25000000E-01  3.75000000E-01  5.00000000E-01
              kpt23    8.33333333E-02  8.33333333E-02  5.00000000E-01
                       2.50000000E-01  8.33333333E-02  5.00000000E-01
                       4.16666667E-01  8.33333333E-02  5.00000000E-01
                      -4.16666667E-01  8.33333333E-02  5.00000000E-01
                      -2.50000000E-01  8.33333333E-02  5.00000000E-01
                      -8.33333333E-02  8.33333333E-02  5.00000000E-01
                       8.33333333E-02  2.50000000E-01  5.00000000E-01
                       2.50000000E-01  2.50000000E-01  5.00000000E-01
                       4.16666667E-01  2.50000000E-01  5.00000000E-01
                      -4.16666667E-01  2.50000000E-01  5.00000000E-01
                      -2.50000000E-01  2.50000000E-01  5.00000000E-01
                      -8.33333333E-02  2.50000000E-01  5.00000000E-01
                       8.33333333E-02  4.16666667E-01  5.00000000E-01
                       2.50000000E-01  4.16666667E-01  5.00000000E-01
                       4.16666667E-01  4.16666667E-01  5.00000000E-01
                      -4.16666667E-01  4.16666667E-01  5.00000000E-01
                      -2.50000000E-01  4.16666667E-01  5.00000000E-01
                      -8.33333333E-02  4.16666667E-01  5.00000000E-01
              kpt31    2.50000000E-01  2.50000000E-01  5.00000000E-01
                      -2.50000000E-01  2.50000000E-01  5.00000000E-01
              kpt32    1.25000000E-01  1.25000000E-01  5.00000000E-01
                       3.75000000E-01  1.25000000E-01  5.00000000E-01
                      -3.75000000E-01  1.25000000E-01  5.00000000E-01
                      -1.25000000E-01  1.25000000E-01  5.00000000E-01
                       1.25000000E-01  3.75000000E-01  5.00000000E-01
                       3.75000000E-01  3.75000000E-01  5.00000000E-01
                      -3.75000000E-01  3.75000000E-01  5.00000000E-01
                      -1.25000000E-01  3.75000000E-01  5.00000000E-01
              kpt33    8.33333333E-02  8.33333333E-02  5.00000000E-01
                       2.50000000E-01  8.33333333E-02  5.00000000E-01
                       4.16666667E-01  8.33333333E-02  5.00000000E-01
                      -4.16666667E-01  8.33333333E-02  5.00000000E-01
                      -2.50000000E-01  8.33333333E-02  5.00000000E-01
                      -8.33333333E-02  8.33333333E-02  5.00000000E-01
                       8.33333333E-02  2.50000000E-01  5.00000000E-01
                       2.50000000E-01  2.50000000E-01  5.00000000E-01
                       4.16666667E-01  2.50000000E-01  5.00000000E-01
                      -4.16666667E-01  2.50000000E-01  5.00000000E-01
                      -2.50000000E-01  2.50000000E-01  5.00000000E-01
                      -8.33333333E-02  2.50000000E-01  5.00000000E-01
                       8.33333333E-02  4.16666667E-01  5.00000000E-01
                       2.50000000E-01  4.16666667E-01  5.00000000E-01
                       4.16666667E-01  4.16666667E-01  5.00000000E-01
                      -4.16666667E-01  4.16666667E-01  5.00000000E-01
                      -2.50000000E-01  4.16666667E-01  5.00000000E-01
                      -8.33333333E-02  4.16666667E-01  5.00000000E-01
              kpt41    2.50000000E-01  2.50000000E-01  5.00000000E-01
                      -2.50000000E-01  2.50000000E-01  5.00000000E-01
              kpt42    1.25000000E-01  1.25000000E-01  5.00000000E-01
                       3.75000000E-01  1.25000000E-01  5.00000000E-01
                      -3.75000000E-01  1.25000000E-01  5.00000000E-01
                      -1.25000000E-01  1.25000000E-01  5.00000000E-01
                       1.25000000E-01  3.75000000E-01  5.00000000E-01
                       3.75000000E-01  3.75000000E-01  5.00000000E-01
                      -3.75000000E-01  3.75000000E-01  5.00000000E-01
                      -1.25000000E-01  3.75000000E-01  5.00000000E-01
              kpt43    8.33333333E-02  8.33333333E-02  5.00000000E-01
                       2.50000000E-01  8.33333333E-02  5.00000000E-01
                       4.16666667E-01  8.33333333E-02  5.00000000E-01
                      -4.16666667E-01  8.33333333E-02  5.00000000E-01
                      -2.50000000E-01  8.33333333E-02  5.00000000E-01
                      -8.33333333E-02  8.33333333E-02  5.00000000E-01
                       8.33333333E-02  2.50000000E-01  5.00000000E-01
                       2.50000000E-01  2.50000000E-01  5.00000000E-01
                       4.16666667E-01  2.50000000E-01  5.00000000E-01
                      -4.16666667E-01  2.50000000E-01  5.00000000E-01
                      -2.50000000E-01  2.50000000E-01  5.00000000E-01
                      -8.33333333E-02  2.50000000E-01  5.00000000E-01
                       8.33333333E-02  4.16666667E-01  5.00000000E-01
                       2.50000000E-01  4.16666667E-01  5.00000000E-01
                       4.16666667E-01  4.16666667E-01  5.00000000E-01
                      -4.16666667E-01  4.16666667E-01  5.00000000E-01
                      -2.50000000E-01  4.16666667E-01  5.00000000E-01
                      -8.33333333E-02  4.16666667E-01  5.00000000E-01
              kpt51    2.50000000E-01  2.50000000E-01  5.00000000E-01
                      -2.50000000E-01  2.50000000E-01  5.00000000E-01
              kpt52    1.25000000E-01  1.25000000E-01  5.00000000E-01
                       3.75000000E-01  1.25000000E-01  5.00000000E-01
                      -3.75000000E-01  1.25000000E-01  5.00000000E-01
                      -1.25000000E-01  1.25000000E-01  5.00000000E-01
                       1.25000000E-01  3.75000000E-01  5.00000000E-01
                       3.75000000E-01  3.75000000E-01  5.00000000E-01
                      -3.75000000E-01  3.75000000E-01  5.00000000E-01
                      -1.25000000E-01  3.75000000E-01  5.00000000E-01
              kpt53    8.33333333E-02  8.33333333E-02  5.00000000E-01
                       2.50000000E-01  8.33333333E-02  5.00000000E-01
                       4.16666667E-01  8.33333333E-02  5.00000000E-01
                      -4.16666667E-01  8.33333333E-02  5.00000000E-01
                      -2.50000000E-01  8.33333333E-02  5.00000000E-01
                      -8.33333333E-02  8.33333333E-02  5.00000000E-01
                       8.33333333E-02  2.50000000E-01  5.00000000E-01
                       2.50000000E-01  2.50000000E-01  5.00000000E-01
                       4.16666667E-01  2.50000000E-01  5.00000000E-01
                      -4.16666667E-01  2.50000000E-01  5.00000000E-01
                      -2.50000000E-01  2.50000000E-01  5.00000000E-01
                      -8.33333333E-02  2.50000000E-01  5.00000000E-01
                       8.33333333E-02  4.16666667E-01  5.00000000E-01
                       2.50000000E-01  4.16666667E-01  5.00000000E-01
                       4.16666667E-01  4.16666667E-01  5.00000000E-01
                      -4.16666667E-01  4.16666667E-01  5.00000000E-01
                      -2.50000000E-01  4.16666667E-01  5.00000000E-01
                      -8.33333333E-02  4.16666667E-01  5.00000000E-01
              kpt61    2.50000000E-01  2.50000000E-01  5.00000000E-01
                      -2.50000000E-01  2.50000000E-01  5.00000000E-01
              kpt62    1.25000000E-01  1.25000000E-01  5.00000000E-01
                       3.75000000E-01  1.25000000E-01  5.00000000E-01
                      -3.75000000E-01  1.25000000E-01  5.00000000E-01
                      -1.25000000E-01  1.25000000E-01  5.00000000E-01
                       1.25000000E-01  3.75000000E-01  5.00000000E-01
                       3.75000000E-01  3.75000000E-01  5.00000000E-01
                      -3.75000000E-01  3.75000000E-01  5.00000000E-01
                      -1.25000000E-01  3.75000000E-01  5.00000000E-01
              kpt63    8.33333333E-02  8.33333333E-02  5.00000000E-01
                       2.50000000E-01  8.33333333E-02  5.00000000E-01
                       4.16666667E-01  8.33333333E-02  5.00000000E-01
                      -4.16666667E-01  8.33333333E-02  5.00000000E-01
                      -2.50000000E-01  8.33333333E-02  5.00000000E-01
                      -8.33333333E-02  8.33333333E-02  5.00000000E-01
                       8.33333333E-02  2.50000000E-01  5.00000000E-01
                       2.50000000E-01  2.50000000E-01  5.00000000E-01
                       4.16666667E-01  2.50000000E-01  5.00000000E-01
                      -4.16666667E-01  2.50000000E-01  5.00000000E-01
                      -2.50000000E-01  2.50000000E-01  5.00000000E-01
                      -8.33333333E-02  2.50000000E-01  5.00000000E-01
                       8.33333333E-02  4.16666667E-01  5.00000000E-01
                       2.50000000E-01  4.16666667E-01  5.00000000E-01
                       4.16666667E-01  4.16666667E-01  5.00000000E-01
                      -4.16666667E-01  4.16666667E-01  5.00000000E-01
                      -2.50000000E-01  4.16666667E-01  5.00000000E-01
                      -8.33333333E-02  4.16666667E-01  5.00000000E-01
         kptrlatt11      2    0    0      0    2    0      0    0    1
         kptrlatt12      4    0    0      0    4    0      0    0    1
         kptrlatt13      6    0    0      0    6    0      0    0    1
         kptrlatt21      2    0    0      0    2    0      0    0    1
         kptrlatt22      4    0    0      0    4    0      0    0    1
         kptrlatt23      6    0    0      0    6    0      0    0    1
         kptrlatt31      2    0    0      0    2    0      0    0    1
         kptrlatt32      4    0    0      0    4    0      0    0    1
         kptrlatt33      6    0    0      0    6    0      0    0    1
         kptrlatt41      2    0    0      0    2    0      0    0    1
         kptrlatt42      4    0    0      0    4    0      0    0    1
         kptrlatt43      6    0    0      0    6    0      0    0    1
         kptrlatt51      2    0    0      0    2    0      0    0    1
         kptrlatt52      4    0    0      0    4    0      0    0    1
         kptrlatt53      6    0    0      0    6    0      0    0    1
         kptrlatt61      2    0    0      0    2    0      0    0    1
         kptrlatt62      4    0    0      0    4    0      0    0    1
         kptrlatt63      6    0    0      0    6    0      0    0    1
          kptrlen11    1.19052746E+01
          kptrlen12    2.38105493E+01
          kptrlen13    3.57158239E+01
          kptrlen21    1.19052746E+01
          kptrlen22    2.38105493E+01
          kptrlen23    3.57158239E+01
          kptrlen31    1.19052746E+01
          kptrlen32    2.38105493E+01
          kptrlen33    3.57158239E+01
          kptrlen41    1.19052746E+01
          kptrlen42    2.38105493E+01
          kptrlen43    3.57158239E+01
          kptrlen51    1.19052746E+01
          kptrlen52    2.38105493E+01
          kptrlen53    3.57158239E+01
          kptrlen61    1.19052746E+01
          kptrlen62    2.38105493E+01
          kptrlen63    3.57158239E+01
P           mkmem11         2
P           mkmem12         8
P           mkmem13        18
P           mkmem21         2
P           mkmem22         8
P           mkmem23        18
P           mkmem31         2
P           mkmem32         8
P           mkmem33        18
P           mkmem41         2
P           mkmem42         8
P           mkmem43        18
P           mkmem51         2
P           mkmem52         8
P           mkmem53        18
P           mkmem61         2
P           mkmem62         8
P           mkmem63        18
            natom           3
            nband11        14
            nband12        14
            nband13        14
            nband21        14
            nband22        14
            nband23        14
            nband31        14
            nband32        14
            nband33        14
            nband41        14
            nband42        14
            nband43        14
            nband51        14
            nband52        14
            nband53        14
            nband61        14
            nband62        14
            nband63        14
           ndtset          18
            ngfft11        18      18     108
            ngfft12        18      18     108
            ngfft13        18      18     108
            ngfft21        24      24     135
            ngfft22        24      24     135
            ngfft23        24      24     135
            ngfft31        24      24     160
            ngfft32        24      24     160
            ngfft33        24      24     160
            ngfft41        30      30     180
            ngfft42        30      30     180
            ngfft43        30      30     180
            ngfft51        30      30     192
            ngfft52        30      30     192
            ngfft53        30      30     192
            ngfft61        32      32     216
            ngfft62        32      32     216
            ngfft63        32      32     216
             nkpt11         2
             nkpt12         8
             nkpt13        18
             nkpt21         2
             nkpt22         8
             nkpt23        18
             nkpt31         2
             nkpt32         8
             nkpt33        18
             nkpt41         2
             nkpt42         8
             nkpt43        18
             nkpt51         2
             nkpt52         8
             nkpt53        18
             nkpt61         2
             nkpt62         8
             nkpt63        18
            nstep          20
             nsym           1
            ntime          10
           ntypat           2
              occ11    2.000000  2.000000  2.000000  2.000000  2.000000  2.000000
                       2.000000  2.000000  2.000000  2.000000  2.000000  2.000000
                       2.000000  0.000000
              occ12    2.000000  2.000000  2.000000  2.000000  2.000000  2.000000
                       2.000000  2.000000  2.000000  2.000000  2.000000  2.000000
                       2.000000  0.000000
              occ13    2.000000  2.000000  2.000000  2.000000  2.000000  2.000000
                       2.000000  2.000000  2.000000  2.000000  2.000000  2.000000
                       2.000000  0.000000
              occ21    2.000000  2.000000  2.000000  2.000000  2.000000  2.000000
                       2.000000  2.000000  2.000000  2.000000  2.000000  2.000000
                       2.000000  0.000000
              occ22    2.000000  2.000000  2.000000  2.000000  2.000000  2.000000
                       2.000000  2.000000  2.000000  2.000000  2.000000  2.000000
                       2.000000  0.000000
              occ23    2.000000  2.000000  2.000000  2.000000  2.000000  2.000000
                       2.000000  2.000000  2.000000  2.000000  2.000000  2.000000
                       2.000000  0.000000
              occ31    2.000000  2.000000  2.000000  2.000000  2.000000  2.000000
                       2.000000  2.000000  2.000000  2.000000  2.000000  2.000000
                       2.000000  0.000000
              occ32    2.000000  2.000000  2.000000  2.000000  2.000000  2.000000
                       2.000000  2.000000  2.000000  2.000000  2.000000  2.000000
                       2.000000  0.000000
              occ33    2.000000  2.000000  2.000000  2.000000  2.000000  2.000000
                       2.000000  2.000000  2.000000  2.000000  2.000000  2.000000
                       2.000000  0.000000
              occ41    2.000000  2.000000  2.000000  2.000000  2.000000  2.000000
                       2.000000  2.000000  2.000000  2.000000  2.000000  2.000000
                       2.000000  0.000000
              occ42    2.000000  2.000000  2.000000  2.000000  2.000000  2.000000
                       2.000000  2.000000  2.000000  2.000000  2.000000  2.000000
                       2.000000  0.000000
              occ43    2.000000  2.000000  2.000000  2.000000  2.000000  2.000000
                       2.000000  2.000000  2.000000  2.000000  2.000000  2.000000
                       2.000000  0.000000
              occ51    2.000000  2.000000  2.000000  2.000000  2.000000  2.000000
                       2.000000  2.000000  2.000000  2.000000  2.000000  2.000000
                       2.000000  0.000000
              occ52    2.000000  2.000000  2.000000  2.000000  2.000000  2.000000
                       2.000000  2.000000  2.000000  2.000000  2.000000  2.000000
                       2.000000  0.000000
              occ53    2.000000  2.000000  2.000000  2.000000  2.000000  2.000000
                       2.000000  2.000000  2.000000  2.000000  2.000000  2.000000
                       2.000000  0.000000
              occ61    2.000000  2.000000  2.000000  2.000000  2.000000  2.000000
                       2.000000  2.000000  2.000000  2.000000  2.000000  2.000000
                       2.000000  0.000000
              occ62    2.000000  2.000000  2.000000  2.000000  2.000000  2.000000
                       2.000000  2.000000  2.000000  2.000000  2.000000  2.000000
                       2.000000  0.000000
              occ63    2.000000  2.000000  2.000000  2.000000  2.000000  2.000000
                       2.000000  2.000000  2.000000  2.000000  2.000000  2.000000
                       2.000000  0.000000
        optforces           1
            rprim      5.0000000000E-01 -8.6602540378E-01  0.0000000000E+00
                       5.0000000000E-01  8.6602540378E-01  0.0000000000E+00
                       0.0000000000E+00  0.0000000000E+00  1.0000000000E+00
           shiftk      5.00000000E-01  5.00000000E-01  5.00000000E-01
          spgroup           1
           toldff      5.00000000E-05
           tolmxf      5.00000000E-04
            typat      1  2  2
              wtk11      0.50000    0.50000
              wtk12      0.12500    0.12500    0.12500    0.12500    0.12500    0.12500
                         0.12500    0.12500
              wtk13      0.05556    0.05556    0.05556    0.05556    0.05556    0.05556
                         0.05556    0.05556    0.05556    0.05556    0.05556    0.05556
                         0.05556    0.05556    0.05556    0.05556    0.05556    0.05556
              wtk21      0.50000    0.50000
              wtk22      0.12500    0.12500    0.12500    0.12500    0.12500    0.12500
                         0.12500    0.12500
              wtk23      0.05556    0.05556    0.05556    0.05556    0.05556    0.05556
                         0.05556    0.05556    0.05556    0.05556    0.05556    0.05556
                         0.05556    0.05556    0.05556    0.05556    0.05556    0.05556
              wtk31      0.50000    0.50000
              wtk32      0.12500    0.12500    0.12500    0.12500    0.12500    0.12500
                         0.12500    0.12500
              wtk33      0.05556    0.05556    0.05556    0.05556    0.05556    0.05556
                         0.05556    0.05556    0.05556    0.05556    0.05556    0.05556
                         0.05556    0.05556    0.05556    0.05556    0.05556    0.05556
              wtk41      0.50000    0.50000
              wtk42      0.12500    0.12500    0.12500    0.12500    0.12500    0.12500
                         0.12500    0.12500
              wtk43      0.05556    0.05556    0.05556    0.05556    0.05556    0.05556
                         0.05556    0.05556    0.05556    0.05556    0.05556    0.05556
                         0.05556    0.05556    0.05556    0.05556    0.05556    0.05556
              wtk51      0.50000    0.50000
              wtk52      0.12500    0.12500    0.12500    0.12500    0.12500    0.12500
                         0.12500    0.12500
              wtk53      0.05556    0.05556    0.05556    0.05556    0.05556    0.05556
                         0.05556    0.05556    0.05556    0.05556    0.05556    0.05556
                         0.05556    0.05556    0.05556    0.05556    0.05556    0.05556
              wtk61      0.50000    0.50000
              wtk62      0.12500    0.12500    0.12500    0.12500    0.12500    0.12500
                         0.12500    0.12500
              wtk63      0.05556    0.05556    0.05556    0.05556    0.05556    0.05556
                         0.05556    0.05556    0.05556    0.05556    0.05556    0.05556
                         0.05556    0.05556    0.05556    0.05556    0.05556    0.05556
           xangst      1.5750000000E+00  9.0932667397E-01  0.0000000000E+00
                       1.5750000000E+00 -9.0932667397E-01 -1.8388847000E+00
                       1.5750000000E+00 -9.0932667397E-01  1.8388847000E+00
            xcart      2.9763186593E+00  1.7183783791E+00  0.0000000000E+00
                       2.9763186593E+00 -1.7183783791E+00 -3.4749884730E+00
                       2.9763186593E+00 -1.7183783791E+00  3.4749884730E+00
             xred      3.3333333333E-01  6.6666666667E-01  0.0000000000E+00
                       6.6666666667E-01  3.3333333333E-01 -9.1944235000E-02
                       6.6666666667E-01  3.3333333333E-01  9.1944235000E-02
            znucl       42.00000   16.00000
 
================================================================================
 
 chkinp: Checking input parameters for consistency, jdtset=  11.
 
 chkinp: Checking input parameters for consistency, jdtset=  12.
 
 chkinp: Checking input parameters for consistency, jdtset=  13.
 
 chkinp: Checking input parameters for consistency, jdtset=  21.
 
 chkinp: Checking input parameters for consistency, jdtset=  22.
 
 chkinp: Checking input parameters for consistency, jdtset=  23.
 
 chkinp: Checking input parameters for consistency, jdtset=  31.
 
 chkinp: Checking input parameters for consistency, jdtset=  32.
 
 chkinp: Checking input parameters for consistency, jdtset=  33.
 
 chkinp: Checking input parameters for consistency, jdtset=  41.
 
 chkinp: Checking input parameters for consistency, jdtset=  42.
 
 chkinp: Checking input parameters for consistency, jdtset=  43.
 
 chkinp: Checking input parameters for consistency, jdtset=  51.
 
 chkinp: Checking input parameters for consistency, jdtset=  52.
 
 chkinp: Checking input parameters for consistency, jdtset=  53.
 
 chkinp: Checking input parameters for consistency, jdtset=  61.
 
 chkinp: Checking input parameters for consistency, jdtset=  62.
 
 chkinp: Checking input parameters for consistency, jdtset=  63.
 
================================================================================
== DATASET 11 ==================================================================
-   mpi_nproc: 1, omp_nthreads: -1 (-1 if OMP is not activated)
 

--- !DatasetInfo
iteration_state: {dtset: 11, }
dimensions: {natom: 3, nkpt: 2, mband: 14, nsppol: 1, nspinor: 1, nspden: 1, mpw: 1738, }
cutoff_energies: {ecut:  10.0, pawecutdg:  -1.0, }
electrons: {nelect:   2.60000000E+01, charge:   0.00000000E+00, occopt:   1.00000000E+00, tsmear:   1.00000000E-02, }
meta: {optdriver: 0, ionmov: 2, optcell: 0, iscf: 7, paral_kgb: 0, }
...

 Exchange-correlation functional for the present dataset will be:
  GGA: Perdew-Burke-Ernzerhof functional - ixc=11
 Citation for XC functional:
  J.P.Perdew, K.Burke, M.Ernzerhof, PRL 77, 3865 (1996)
 
 Real(R)+Recip(G) space primitive vectors, cartesian coordinates (Bohr,Bohr^-1):
 R(1)=  2.9763187 -5.1551351  0.0000000  G(1)=  0.1679928 -0.0969907  0.0000000
 R(2)=  2.9763187  5.1551351  0.0000000  G(2)=  0.1679928  0.0969907  0.0000000
 R(3)=  0.0000000  0.0000000 37.7945227  G(3)=  0.0000000  0.0000000  0.0264589
 Unit cell volume ucvol=  1.1597873E+03 bohr^3
 Angles (23,13,12)=  9.00000000E+01  9.00000000E+01  1.20000000E+02 degrees
 
 getcut: wavevector=  0.0000  0.0000  0.0000  ngfft=  18  18 108
         ecut(hartree)=     10.000   => boxcut(ratio)=   2.00738
 
--- Pseudopotential description ------------------------------------------------
- pspini: atom type   1  psp file is ../persudo/Mo.psp8
- pspatm: opening atomic psp file    ../persudo/Mo.psp8
- Mo    ONCVPSP-3.2.3.1  r_core=   1.45541   1.45541   1.35488
- 42.00000  14.00000    170510                znucl, zion, pspdat
    8   11    2    4       600   0.00000      pspcod,pspxc,lmax,lloc,mmax,r2well
    5.99000000000000    3.00000000000000    0.00000000000000   rchrg,fchrg,qchrg
     nproj     2     2     2
     extension_switch     1
  pspatm : epsatm=   15.95693586
         --- l  ekb(1:nproj) -->
             0   13.833287    1.350687
             1    8.015347    1.134034
             2    2.765699    0.969071
 pspatm: atomic psp has been read  and splines computed
 
- pspini: atom type   2  psp file is ../persudo/S.psp8
- pspatm: opening atomic psp file    ../persudo/S.psp8
- S     ONCVPSP-4.0.1  r_core=   1.45687   1.45687   1.45687
- 16.00000   6.00000    220131                znucl, zion, pspdat
    8   11    2    4       600   0.00000      pspcod,pspxc,lmax,lloc,mmax,r2well
    5.99000000000000    6.00000000000000    0.00000000000000   rchrg,fchrg,qchrg
     nproj     2     2     2
     extension_switch     1
  pspatm : epsatm=    9.04179351
         --- l  ekb(1:nproj) -->
             0    6.774234    0.542270
             1    3.022426    0.737017
             2   -5.033160   -1.531047
 pspatm: atomic psp has been read  and splines computed
 
   8.85053595E+02                                ecore*ucvol(ha*bohr**3)
--------------------------------------------------------------------------------
 
_setup2: Arith. and geom. avg. npw (full set) are    1738.000    1738.000
 
================================================================================
 
=== [ionmov= 2] Broyden-Fletcher-Goldfard-Shanno method (forces)            
================================================================================
 
--- Iteration: ( 1/10) Internal Cycle: (1/1)
--------------------------------------------------------------------------------
 
---SELF-CONSISTENT-FIELD CONVERGENCE--------------------------------------------

--- !BeginCycle
iteration_state: {dtset: 11, itime: 1, icycle: 1, }
solver: {iscf: 7, nstep: 20, nline: 4, wfoptalg: 0, }
tolerances: {toldff: 5.00E-05, }
...
 
     iter   Etot(hartree)      deltaE(h)  residm     vres2    diffor    maxfor
 ETOT  1  -90.415884330237    -9.042E+01 4.546E-02 3.641E+03 1.028E-01 1.028E-01
 ETOT  2  -85.951563952444     4.464E+00 5.054E-03 1.840E+04 1.093E+00 9.916E-01
 ETOT  3  -91.522059512640    -5.570E+00 1.732E-02 7.624E+01 9.560E-01 3.562E-02
 ETOT  4  -91.569777330989    -4.772E-02 1.335E-03 5.997E+00 3.975E-02 7.397E-02
 ETOT  5  -91.570921900327    -1.145E-03 3.249E-04 1.248E+01 7.958E-03 8.188E-02
 ETOT  6  -91.571903316164    -9.814E-04 1.833E-04 5.876E+00 5.817E-03 7.606E-02
 ETOT  7  -91.572527095293    -6.238E-04 7.625E-05 1.499E+00 4.922E-03 7.123E-02
 ETOT  8  -91.572564743354    -3.765E-05 4.344E-05 9.356E-01 5.384E-04 7.091E-02
 ETOT  9  -91.572581922249    -1.718E-05 2.415E-05 6.266E-01 4.894E-04 7.042E-02
 ETOT 10  -91.572597952546    -1.603E-05 1.297E-05 2.675E-01 4.894E-04 6.993E-02
 ETOT 11  -91.572602557080    -4.605E-06 8.548E-06 1.330E-01 2.523E-04 6.981E-02
 ETOT 12  -91.572604784351    -2.227E-06 4.220E-06 5.768E-02 2.871E-04 6.954E-02
 ETOT 13  -91.572605304331    -5.200E-07 3.024E-06 2.931E-02 2.533E-04 6.941E-02
 ETOT 14  -91.572605305711    -1.380E-09 1.479E-06 2.365E-02 1.978E-04 6.949E-02
 ETOT 15  -91.572605474877    -1.692E-07 1.029E-06 1.552E-02 1.421E-04 6.937E-02
 ETOT 16  -91.572605463679     1.120E-08 5.153E-07 1.404E-02 4.103E-05 6.939E-02
 ETOT 17  -91.572605461532     2.147E-09 3.548E-07 1.279E-02 7.765E-06 6.940E-02
 
 At SCF step   17, forces are converged : 
  for the second time, max diff in force=  7.765E-06 < toldff=  5.000E-05
 
 Cartesian components of stress tensor (hartree/bohr^3)
  sigma(1 1)=  1.13225297E-03  sigma(3 2)=  9.82405073E-10
  sigma(2 2)=  1.09526098E-03  sigma(3 1)= -2.63233026E-11
  sigma(3 3)=  1.44969380E-03  sigma(2 1)= -9.22262994E-11
 

--- !ResultsGS
iteration_state: {dtset: 11, itime: 1, icycle: 1, }
comment   : Summary of ground state results
lattice_vectors:
- [  2.9763187,  -5.1551351,   0.0000000, ]
- [  2.9763187,   5.1551351,   0.0000000, ]
- [  0.0000000,   0.0000000,  37.7945227, ]
lattice_lengths: [   5.95264,    5.95264,   37.79452, ]
lattice_angles: [ 90.000,  90.000, 120.000, ] # degrees, (23, 13, 12)
lattice_volume:   1.1597873E+03
convergence: {deltae:  2.147E-09, res2:  1.279E-02, residm:  3.548E-07, diffor:  7.765E-06, }
etotal    :  -9.15726055E+01
entropy   :   0.00000000E+00
fermie    :  -6.34707662E-02
cartesian_stress_tensor: # hartree/bohr^3
- [  1.13225297E-03,  -9.22262994E-11,  -2.63233026E-11, ]
- [ -9.22262994E-11,   1.09526098E-03,   9.82405073E-10, ]
- [ -2.63233026E-11,   9.82405073E-10,   1.44969380E-03, ]
pressure_GPa:  -3.6062E+01
xred      :
- [  3.3333E-01,   6.6667E-01,   0.0000E+00, Mo]
- [  6.6667E-01,   3.3333E-01,  -9.1944E-02,  S]
- [  6.6667E-01,   3.3333E-01,   9.1944E-02,  S]
cartesian_forces: # hartree/bohr
- [  3.38750343E-07,  -9.86800038E-03,  -7.98222093E-06, ]
- [ -9.75926660E-07,   4.93399576E-03,   6.93958904E-02, ]
- [  6.37176317E-07,   4.93400462E-03,  -6.93879082E-02, ]
force_length_stats: {min:   9.86800362E-03, max:   6.95710710E-02, mean:   4.96673947E-02, }
...

 Integrated electronic density in atomic spheres:
 ------------------------------------------------
 Atom  Sphere_radius  Integrated_density
    1        2.00000         10.24835119
    2        2.00000          3.78376962
    3        2.00000          3.78377432
 
---OUTPUT-----------------------------------------------------------------------
 
 Cartesian coordinates (xcart) [bohr]
  2.97631865929489E+00  1.71837837912920E+00  0.00000000000000E+00
  2.97631865929489E+00 -1.71837837912920E+00 -3.47498847295358E+00
  2.97631865929489E+00 -1.71837837912920E+00  3.47498847295358E+00
 Reduced coordinates (xred)
  3.33333333333333E-01  6.66666666666667E-01  0.00000000000000E+00
  6.66666666666667E-01  3.33333333333333E-01 -9.19442350000000E-02
  6.66666666666667E-01  3.33333333333333E-01  9.19442350000000E-02
 Cartesian forces (fcart) [Ha/bohr]; max,rms= 6.93959E-02 3.29588E-02 (free atoms)
  3.38750343151228E-07 -9.86800038375555E-03 -7.98222093138356E-06
 -9.75926660286980E-07  4.93399576272212E-03  6.93958903779539E-02
  6.37176317135751E-07  4.93400462103343E-03 -6.93879081570225E-02
 Gradient of E wrt nuclear positions in reduced coordinates (gred)
 -5.08718837430198E-02  5.08698672850855E-02  3.01684229850046E-04
  2.54383195928595E-02 -2.54325102554012E-02 -2.62278455124174E+00
  2.54335641501603E-02 -2.54373570296842E-02  2.62248286701189E+00
 Total energy (etotal) [Ha]= -9.15726054615320E+01
 
--- Iteration: ( 2/10) Internal Cycle: (1/1)
--------------------------------------------------------------------------------
 
---SELF-CONSISTENT-FIELD CONVERGENCE--------------------------------------------

--- !BeginCycle
iteration_state: {dtset: 11, itime: 2, icycle: 1, }
solver: {iscf: 7, nstep: 20, nline: 4, wfoptalg: 0, }
tolerances: {toldff: 5.00E-05, }
...
 
     iter   Etot(hartree)      deltaE(h)  residm     vres2    diffor    maxfor
 ETOT  1  -91.564578268323    -9.156E+01 8.833E-06 1.070E+02 3.700E-02 1.064E-01
 ETOT  2  -91.536485342256     2.809E-02 5.130E-06 1.252E+02 9.612E-02 1.029E-02
 ETOT  3  -91.565788218425    -2.930E-02 2.473E-04 7.143E+01 8.680E-02 9.707E-02
 ETOT  4  -91.581806491247    -1.602E-02 4.953E-05 2.400E+00 3.400E-02 6.307E-02
 ETOT  5  -91.581823417748    -1.693E-05 2.342E-07 2.231E+00 7.771E-04 6.384E-02
 ETOT  6  -91.581832181014    -8.763E-06 1.122E-07 2.039E+00 2.780E-04 6.356E-02
 ETOT  7  -91.581843371905    -1.119E-05 3.834E-08 1.577E+00 1.271E-04 6.343E-02
 ETOT  8  -91.581852908384    -9.536E-06 9.733E-09 1.275E+00 2.701E-04 6.316E-02
 ETOT  9  -91.581869636869    -1.673E-05 3.698E-08 7.044E-01 9.029E-04 6.226E-02
 ETOT 10  -91.581870881362    -1.244E-06 3.934E-09 5.536E-01 4.568E-05 6.222E-02
 ETOT 11  -91.581870251522     6.298E-07 5.363E-09 4.766E-01 2.628E-04 6.248E-02
 ETOT 12  -91.581871299432    -1.048E-06 1.743E-09 3.745E-01 9.788E-05 6.238E-02
 ETOT 13  -91.581872225197    -9.258E-07 1.857E-09 2.527E-01 1.771E-04 6.220E-02
 ETOT 14  -91.581872265523    -4.033E-08 1.420E-09 2.015E-01 2.227E-05 6.222E-02
 ETOT 15  -91.581872528198    -2.627E-07 4.844E-10 1.065E-01 5.889E-05 6.217E-02
 ETOT 16  -91.581872610304    -8.211E-08 2.303E-10 3.489E-02 5.759E-06 6.217E-02
 ETOT 17  -91.581872714256    -1.040E-07 3.364E-10 9.553E-03 5.603E-05 6.211E-02
 ETOT 18  -91.581872735821    -2.157E-08 1.543E-10 1.482E-03 5.221E-06 6.212E-02
 ETOT 19  -91.581872757113    -2.129E-08 2.474E-10 2.004E-04 6.769E-05 6.205E-02
 ETOT 20  -91.581872758834    -1.721E-09 1.372E-10 9.475E-05 4.201E-05 6.209E-02
 
 Cartesian components of stress tensor (hartree/bohr^3)
  sigma(1 1)=  1.12583816E-03  sigma(3 2)=  5.43636652E-10
  sigma(2 2)=  1.08596410E-03  sigma(3 1)=  3.18716517E-10
  sigma(3 3)=  1.40136820E-03  sigma(2 1)=  2.41890093E-11
 

--- !ResultsGS
iteration_state: {dtset: 11, itime: 2, icycle: 1, }
comment   : Summary of ground state results
lattice_vectors:
- [  2.9763187,  -5.1551351,   0.0000000, ]
- [  2.9763187,   5.1551351,   0.0000000, ]
- [  0.0000000,   0.0000000,  37.7945227, ]
lattice_lengths: [   5.95264,    5.95264,   37.79452, ]
lattice_angles: [ 90.000,  90.000, 120.000, ] # degrees, (23, 13, 12)
lattice_volume:   1.1597873E+03
convergence: {deltae: -1.721E-09, res2:  9.475E-05, residm:  1.372E-10, diffor:  4.201E-05, }
etotal    :  -9.15818728E+01
entropy   :   0.00000000E+00
fermie    :  -6.34125362E-02
cartesian_stress_tensor: # hartree/bohr^3
- [  1.12583816E-03,   2.41890093E-11,   3.18716517E-10, ]
- [  2.41890093E-11,   1.08596410E-03,   5.43636652E-10, ]
- [  3.18716517E-10,   5.43636652E-10,   1.40136820E-03, ]
pressure_GPa:  -3.5434E+01
xred      :
- [  3.3429E-01,   6.6571E-01,  -2.1120E-07, Mo]
- [  6.6619E-01,   3.3381E-01,  -9.0108E-02,  S]
- [  6.6619E-01,   3.3381E-01,   9.0108E-02,  S]
cartesian_forces: # hartree/bohr
- [  6.16987806E-08,  -9.21606712E-03,   2.29330513E-06, ]
- [ -4.30537984E-07,   4.60816222E-03,   6.20897288E-02, ]
- [  3.68839204E-07,   4.60790490E-03,  -6.20920221E-02, ]
force_length_stats: {min:   9.21606741E-03, max:   6.22627657E-02, mean:   4.45797770E-02, }
...

 Integrated electronic density in atomic spheres:
 ------------------------------------------------
 Atom  Sphere_radius  Integrated_density
    1        2.00000         10.25943972
    2        2.00000          3.79059647
    3        2.00000          3.79059158
 
---OUTPUT-----------------------------------------------------------------------
 
 Cartesian coordinates (xcart) [bohr]
  2.97631899804523E+00  1.70851037874545E+00 -7.98222093138356E-06
  2.97631768336823E+00 -1.71344438336648E+00 -3.40559258257562E+00
  2.97631929647121E+00 -1.71344437450817E+00  3.40560056479655E+00
 Reduced coordinates (xred)
  3.34290494188826E-01  6.65709619626388E-01 -2.11200469540911E-07
  6.66187951173693E-01  3.33811720929072E-01 -9.01080988221088E-02
  6.66188221304148E-01  3.33811992777874E-01  9.01083100225784E-02
 Cartesian forces (fcart) [Ha/bohr]; max,rms= 6.20920E-02 2.95107E-02 (free atoms)
  6.16987806233380E-08 -9.21606712073582E-03  2.29330512704892E-06
 -4.30537984364860E-07  4.60816222129848E-03  6.20897288027699E-02
  3.68839203741522E-07  4.60790489943734E-03 -6.20920221078969E-02
 Gradient of E wrt nuclear positions in reduced coordinates (gred)
 -4.75102550778599E-02  4.75098878073958E-02 -8.66743725852997E-05
  2.37569804040343E-02 -2.37544175675615E-02 -2.34665166204753E+00
  2.37532746738256E-02 -2.37554702398343E-02  2.34673833642012E+00
 Total energy (etotal) [Ha]= -9.15818727588337E+01
 
 Difference of energy with previous step (new-old):
           Absolute (Ha)=-9.26730E-03
           Relative     =-1.01197E-04
 
--- Iteration: ( 3/10) Internal Cycle: (1/1)
--------------------------------------------------------------------------------
 
---SELF-CONSISTENT-FIELD CONVERGENCE--------------------------------------------

--- !BeginCycle
iteration_state: {dtset: 11, itime: 3, icycle: 1, }
solver: {iscf: 7, nstep: 20, nline: 4, wfoptalg: 0, }
tolerances: {toldff: 5.00E-05, }
...
 
     iter   Etot(hartree)      deltaE(h)  residm     vres2    diffor    maxfor
 ETOT  1  -90.881117222287    -9.088E+01 3.733E-03 3.569E+03 2.657E-01 3.278E-01
 ETOT  2  -91.119265138647    -2.381E-01 1.545E-03 7.518E+02 4.994E-01 1.716E-01
 ETOT  3  -91.577539482124    -4.583E-01 2.898E-03 2.569E+02 1.736E-01 1.232E-02
 ETOT  4  -91.602492514371    -2.495E-02 2.101E-04 9.873E+01 2.548E-02 2.350E-02
 ETOT  5  -91.603344885142    -8.524E-04 1.105E-04 8.115E+01 2.950E-03 2.642E-02
 ETOT  6  -91.603861476665    -5.166E-04 4.199E-05 6.632E+01 2.817E-03 2.923E-02
 ETOT  7  -91.604282480325    -4.210E-04 2.759E-05 5.087E+01 2.489E-03 3.172E-02
 ETOT  8  -91.604425028401    -1.425E-04 7.948E-06 4.292E+01 1.132E-03 3.285E-02
 ETOT  9  -91.604549359064    -1.243E-04 5.727E-06 3.295E+01 1.105E-03 3.396E-02
 ETOT 10  -91.604598912635    -4.955E-05 1.777E-06 2.808E+01 6.097E-04 3.457E-02
 ETOT 11  -91.604628137798    -2.923E-05 1.105E-06 2.277E+01 3.230E-04 3.489E-02
 ETOT 12  -91.604661029756    -3.289E-05 3.798E-07 1.652E+01 6.140E-04 3.550E-02
 ETOT 13  -91.604664014041    -2.984E-06 3.212E-07 1.610E+01 7.282E-05 3.558E-02
 ETOT 14  -91.604675111653    -1.110E-05 6.914E-08 9.228E+00 2.954E-04 3.587E-02
 ETOT 15  -91.604685891042    -1.078E-05 3.712E-08 8.110E+00 3.888E-04 3.626E-02
 ETOT 16  -91.604677936527     7.955E-06 4.282E-08 5.743E+00 3.062E-04 3.595E-02
 ETOT 17  -91.604695452707    -1.752E-05 7.712E-08 1.580E+00 8.519E-04 3.681E-02
 ETOT 18  -91.604695627322    -1.746E-07 4.248E-09 1.336E+00 6.102E-05 3.675E-02
 ETOT 19  -91.604697407774    -1.780E-06 1.925E-08 2.457E-01 3.689E-04 3.711E-02
 ETOT 20  -91.604697505351    -9.758E-08 1.146E-08 2.194E-02 2.401E-05 3.714E-02
 
 Cartesian components of stress tensor (hartree/bohr^3)
  sigma(1 1)=  1.01908357E-03  sigma(3 2)= -1.06114411E-09
  sigma(2 2)=  8.75664140E-04  sigma(3 1)=  2.01223510E-09
  sigma(3 3)=  8.44164410E-04  sigma(2 1)= -3.09556316E-10
 

--- !ResultsGS
iteration_state: {dtset: 11, itime: 3, icycle: 1, }
comment   : Summary of ground state results
lattice_vectors:
- [  2.9763187,  -5.1551351,   0.0000000, ]
- [  2.9763187,   5.1551351,   0.0000000, ]
- [  0.0000000,   0.0000000,  37.7945227, ]
lattice_lengths: [   5.95264,    5.95264,   37.79452, ]
lattice_angles: [ 90.000,  90.000, 120.000, ] # degrees, (23, 13, 12)
lattice_volume:   1.1597873E+03
convergence: {deltae: -9.758E-08, res2:  2.194E-02, residm:  1.146E-08, diffor:  2.401E-05, }
etotal    :  -9.16046975E+01
entropy   :   0.00000000E+00
fermie    :  -7.99413093E-02
cartesian_stress_tensor: # hartree/bohr^3
- [  1.01908357E-03,  -3.09556316E-10,   2.01223510E-09, ]
- [ -3.09556316E-10,   8.75664140E-04,  -1.06114411E-09, ]
- [  2.01223510E-09,  -1.06114411E-09,   8.44164410E-04, ]
pressure_GPa:  -2.6861E+01
xred      :
- [  3.4284E-01,   6.5716E-01,   3.6830E-07, Mo]
- [  6.6191E-01,   3.3808E-01,  -7.4403E-02,  S]
- [  6.6192E-01,   3.3809E-01,   7.4403E-02,  S]
cartesian_forces: # hartree/bohr
- [ -3.37965488E-07,   8.36596829E-03,  -7.34537883E-06, ]
- [  7.58568855E-07,  -4.18313548E-03,  -3.71306168E-02, ]
- [ -4.20603367E-07,  -4.18283282E-03,   3.71379622E-02, ]
force_length_stats: {min:   8.36597152E-03, max:   3.73727752E-02, mean:   2.77014189E-02, }
...

 Integrated electronic density in atomic spheres:
 ------------------------------------------------
 Atom  Sphere_radius  Integrated_density
    1        2.00000         10.52581683
    2        2.00000          3.98325657
    3        2.00000          3.98326694
 
---OUTPUT-----------------------------------------------------------------------
 
 Cartesian coordinates (xcart) [bohr]
  2.97631958843204E+00  1.62040712639592E+00  1.39196720705437E-05
  2.97631356647322E+00 -1.66939152751918E+00 -2.81202459511089E+00
  2.97632282297941E+00 -1.66939397800595E+00  2.81201067543882E+00
 Reduced coordinates (xred)
  3.42835786657544E-01  6.57164525519095E-01  3.68298660538925E-07
  6.61914543654355E-01  3.38083745231261E-01 -7.44029662863602E-02
  6.61916336354769E-01  3.38085062582977E-01  7.44025979876997E-02
 Cartesian forces (fcart) [Ha/bohr]; max,rms= 3.71380E-02 1.78353E-02 (free atoms)
 -3.37965487641218E-07  8.36596829289330E-03 -7.34537883343686E-06
  7.58568854729389E-07 -4.18313547510392E-03 -3.71306167932671E-02
 -4.20603367088171E-07 -4.18283281778938E-03  3.71379621721005E-02
 Gradient of E wrt nuclear positions in reduced coordinates (gred)
  4.31287029979519E-02 -4.31266912119778E-02  2.77615086749814E-04
 -2.15668864147975E-02  2.15623709295241E-02  1.40333393768799E+00
 -2.15618165831544E-02  2.15643202824537E-02 -1.40361155277474E+00
 Total energy (etotal) [Ha]= -9.16046975053507E+01
 
 Difference of energy with previous step (new-old):
           Absolute (Ha)=-2.28247E-02
           Relative     =-2.49197E-04
 
--- Iteration: ( 4/10) Internal Cycle: (1/1)
--------------------------------------------------------------------------------
 
---SELF-CONSISTENT-FIELD CONVERGENCE--------------------------------------------

--- !BeginCycle
iteration_state: {dtset: 11, itime: 4, icycle: 1, }
solver: {iscf: 7, nstep: 20, nline: 4, wfoptalg: 0, }
tolerances: {toldff: 5.00E-05, }
...
 
     iter   Etot(hartree)      deltaE(h)  residm     vres2    diffor    maxfor
 ETOT  1  -91.469632679557    -9.147E+01 8.895E-04 7.898E+02 1.273E-01 1.645E-01
 ETOT  2  -91.494014613839    -2.438E-02 3.206E-05 2.220E+02 2.561E-01 9.165E-02
 ETOT  3  -91.576857361698    -8.284E-02 9.665E-04 1.600E+02 1.282E-01 3.659E-02
 ETOT  4  -91.609279356148    -3.242E-02 8.856E-05 2.310E+01 3.681E-02 1.648E-03
 ETOT  5  -91.610029093215    -7.497E-04 8.830E-06 1.416E+01 2.830E-03 3.048E-03
 ETOT  6  -91.610328785907    -2.997E-04 4.226E-06 8.647E+00 3.204E-03 6.252E-03
 ETOT  7  -91.610394753376    -6.597E-05 2.485E-07 6.568E+00 8.280E-04 7.080E-03
 ETOT  8  -91.610437995778    -4.324E-05 1.566E-07 4.548E+00 8.469E-04 7.926E-03
 ETOT  9  -91.610454785347    -1.679E-05 5.992E-08 3.384E+00 4.658E-04 8.392E-03
 ETOT 10  -91.610462974377    -8.189E-06 3.434E-08 2.294E+00 2.801E-04 8.672E-03
 ETOT 11  -91.610465455087    -2.481E-06 6.423E-09 1.776E+00 1.562E-04 8.828E-03
 ETOT 12  -91.610467455540    -2.000E-06 4.029E-09 1.256E+00 1.465E-04 8.975E-03
 ETOT 13  -91.610466607707     8.478E-07 3.300E-09 8.186E-01 1.330E-04 8.842E-03
 ETOT 14  -91.610469068689    -2.461E-06 1.250E-08 4.612E-01 4.512E-04 9.293E-03
 ETOT 15  -91.610469517938    -4.492E-07 5.594E-09 1.808E-01 1.226E-04 9.170E-03
 ETOT 16  -91.610469940391    -4.225E-07 3.763E-09 2.435E-02 1.972E-04 9.367E-03
 ETOT 17  -91.610469969640    -2.925E-08 3.226E-09 7.965E-04 6.429E-06 9.361E-03
 ETOT 18  -91.610469969248     3.919E-10 1.370E-09 2.570E-05 1.922E-05 9.375E-03
 
 At SCF step   18, forces are converged : 
  for the second time, max diff in force=  1.922E-05 < toldff=  5.000E-05
 
 Cartesian components of stress tensor (hartree/bohr^3)
  sigma(1 1)=  1.07213503E-03  sigma(3 2)= -4.33396730E-10
  sigma(2 2)=  9.88790780E-04  sigma(3 1)=  1.20638102E-09
  sigma(3 3)=  1.08312813E-03  sigma(2 1)= -7.38117016E-11
 

--- !ResultsGS
iteration_state: {dtset: 11, itime: 4, icycle: 1, }
comment   : Summary of ground state results
lattice_vectors:
- [  2.9763187,  -5.1551351,   0.0000000, ]
- [  2.9763187,   5.1551351,   0.0000000, ]
- [  0.0000000,   0.0000000,  37.7945227, ]
lattice_lengths: [   5.95264,    5.95264,   37.79452, ]
lattice_angles: [ 90.000,  90.000, 120.000, ] # degrees, (23, 13, 12)
lattice_volume:   1.1597873E+03
convergence: {deltae:  3.919E-10, res2:  2.570E-05, residm:  1.370E-09, diffor:  1.922E-05, }
etotal    :  -9.16104700E+01
entropy   :   0.00000000E+00
fermie    :  -7.06314591E-02
cartesian_stress_tensor: # hartree/bohr^3
- [  1.07213503E-03,  -7.38117016E-11,   1.20638102E-09, ]
- [ -7.38117016E-11,   9.88790780E-04,  -4.33396730E-10, ]
- [  1.20638102E-09,  -4.33396730E-10,   1.08312813E-03, ]
pressure_GPa:  -3.0834E+01
xred      :
- [  3.3945E-01,   6.6055E-01,   5.2193E-08, Mo]
- [  6.6361E-01,   3.3639E-01,  -8.0305E-02,  S]
- [  6.6361E-01,   3.3639E-01,   8.0305E-02,  S]
cartesian_forces: # hartree/bohr
- [ -1.45631135E-07,  -2.72957446E-03,  -7.08649856E-07, ]
- [ -3.68965468E-07,   1.36470894E-03,   9.37479160E-03, ]
- [  5.14596603E-07,   1.36486552E-03,  -9.37408295E-03, ]
force_length_stats: {min:   2.72957456E-03, max:   9.47360270E-03, mean:   7.22536709E-03, }
...

 Integrated electronic density in atomic spheres:
 ------------------------------------------------
 Atom  Sphere_radius  Integrated_density
    1        2.00000         10.41190443
    2        2.00000          3.90604928
    3        2.00000          3.90605019
 
---OUTPUT-----------------------------------------------------------------------
 
 Cartesian coordinates (xcart) [bohr]
  2.97631917848426E+00  1.65529779411726E+00  1.97261360158109E-06
  2.97631542673284E+00 -1.68683736976269E+00 -3.03509557210851E+00
  2.97632137266757E+00 -1.68683880348377E+00  3.03509359949491E+00
 Reduced coordinates (xred)
  3.39451648624122E-01  6.60548525815995E-01  5.21931079655674E-08
  6.63606940055483E-01  3.36391973850445E-01 -8.03051701326125E-02
  6.63608077987063E-01  3.36392833666894E-01  8.03051179395046E-02
 Cartesian forces (fcart) [Ha/bohr]; max,rms= 9.37479E-03 4.55748E-03 (free atoms)
 -1.45631134656768E-07 -2.72957446067100E-03 -7.08649856321840E-07
 -3.68965468034091E-07  1.36470894052404E-03  9.37479160120552E-03
  5.14596602690859E-07  1.36486552014696E-03 -9.37408295134920E-03
 Gradient of E wrt nuclear positions in reduced coordinates (gred)
 -1.40708917676575E-02  1.40717586569844E-02  2.67830830511408E-05
  7.03635717040964E-03 -7.03416085279535E-03 -3.54315773583098E-01
  7.03453459724782E-03 -7.03759780418902E-03  3.54288990500047E-01
 Total energy (etotal) [Ha]= -9.16104699692480E+01
 
 Difference of energy with previous step (new-old):
           Absolute (Ha)=-5.77246E-03
           Relative     =-6.30129E-05
 
--- Iteration: ( 5/10) Internal Cycle: (1/1)
--------------------------------------------------------------------------------
 
---SELF-CONSISTENT-FIELD CONVERGENCE--------------------------------------------

--- !BeginCycle
iteration_state: {dtset: 11, itime: 5, icycle: 1, }
solver: {iscf: 7, nstep: 20, nline: 4, wfoptalg: 0, }
tolerances: {toldff: 5.00E-05, }
...
 
     iter   Etot(hartree)      deltaE(h)  residm     vres2    diffor    maxfor
 ETOT  1  -91.605846363501    -9.161E+01 3.682E-05 3.489E+01 2.296E-02 3.234E-02
 ETOT  2  -91.606221461971    -3.751E-04 1.293E-05 7.724E+00 4.616E-02 1.382E-02
 ETOT  3  -91.605308188003     9.133E-04 7.204E-05 2.154E+01 3.339E-02 1.957E-02
 ETOT  4  -91.610920721853    -5.613E-03 1.862E-05 1.396E+00 1.677E-02 2.808E-03
 ETOT  5  -91.610940150511    -1.943E-05 1.190E-07 1.084E+00 1.486E-04 2.672E-03
 ETOT  6  -91.610954071099    -1.392E-05 3.090E-08 7.602E-01 7.478E-04 1.924E-03
 ETOT  7  -91.610960543609    -6.473E-06 1.495E-08 5.519E-01 2.516E-04 1.673E-03
 ETOT  8  -91.610964056144    -3.513E-06 1.074E-08 3.716E-01 2.902E-04 1.383E-03
 ETOT  9  -91.610964768912    -7.128E-07 1.319E-08 2.901E-01 5.591E-05 1.327E-03
 ETOT 10  -91.610965227649    -4.587E-07 9.952E-09 1.951E-01 8.279E-05 1.244E-03
 ETOT 11  -91.610965384637    -1.570E-07 3.519E-09 1.533E-01 9.736E-06 1.238E-03
 ETOT 12  -91.610965623675    -2.390E-07 1.873E-09 9.130E-02 8.355E-05 1.154E-03
 ETOT 13  -91.610965389688     2.340E-07 1.515E-09 6.738E-02 9.930E-05 1.253E-03
 ETOT 14  -91.610965715948    -3.263E-07 2.102E-09 3.398E-02 1.470E-04 1.106E-03
 ETOT 15  -91.610965707498     8.450E-09 1.019E-09 1.343E-02 3.293E-05 1.139E-03
 ETOT 16  -91.610965767124    -5.963E-08 6.979E-10 1.014E-03 5.386E-05 1.085E-03
 ETOT 17  -91.610965772577    -5.452E-09 2.455E-09 2.115E-05 1.596E-05 1.069E-03
 ETOT 18  -91.610965773020    -4.437E-10 7.517E-11 5.214E-07 5.779E-06 1.064E-03
 
 At SCF step   18, forces are converged : 
  for the second time, max diff in force=  5.779E-06 < toldff=  5.000E-05
 
 Cartesian components of stress tensor (hartree/bohr^3)
  sigma(1 1)=  1.06286082E-03  sigma(3 2)= -4.76378215E-10
  sigma(2 2)=  9.69678689E-04  sigma(3 1)=  1.70189384E-09
  sigma(3 3)=  1.03764942E-03  sigma(2 1)= -6.13492335E-11
 

--- !ResultsGS
iteration_state: {dtset: 11, itime: 5, icycle: 1, }
comment   : Summary of ground state results
lattice_vectors:
- [  2.9763187,  -5.1551351,   0.0000000, ]
- [  2.9763187,   5.1551351,   0.0000000, ]
- [  0.0000000,   0.0000000,  37.7945227, ]
lattice_lengths: [   5.95264,    5.95264,   37.79452, ]
lattice_angles: [ 90.000,  90.000, 120.000, ] # degrees, (23, 13, 12)
lattice_volume:   1.1597873E+03
convergence: {deltae: -4.437E-10, res2:  5.214E-07, residm:  7.517E-11, diffor:  5.779E-06, }
etotal    :  -9.16109658E+01
entropy   :   0.00000000E+00
fermie    :  -7.20991825E-02
cartesian_stress_tensor: # hartree/bohr^3
- [  1.06286082E-03,  -6.13492335E-11,   1.70189384E-09, ]
- [ -6.13492335E-11,   9.69678689E-04,  -4.76378215E-10, ]
- [  1.70189384E-09,  -4.76378215E-10,   1.03764942E-03, ]
pressure_GPa:  -3.0109E+01
xred      :
- [  3.4018E-01,   6.5982E-01,   6.1832E-08, Mo]
- [  6.6324E-01,   3.3676E-01,  -7.9111E-02,  S]
- [  6.6324E-01,   3.3676E-01,   7.9111E-02,  S]
cartesian_forces: # hartree/bohr
- [ -1.03044265E-07,  -1.00333346E-03,  -1.00185918E-06, ]
- [  4.21521081E-07,   5.01577253E-04,   1.06421813E-03, ]
- [ -3.18476816E-07,   5.01756206E-04,  -1.06321627E-03, ]
force_length_stats: {min:   1.00333396E-03, max:   1.17649486E-03, mean:   1.11849795E-03, }
...

 Integrated electronic density in atomic spheres:
 ------------------------------------------------
 Atom  Sphere_radius  Integrated_density
    1        2.00000         10.43188822
    2        2.00000          3.95085910
    3        2.00000          3.95086063
 
---OUTPUT-----------------------------------------------------------------------
 
 Cartesian coordinates (xcart) [bohr]
  2.97631907702867E+00  1.64774755915080E+00  2.33691574197858E-06
  2.97631490924781E+00 -1.68306224239213E+00 -2.98994685298380E+00
  2.97632199160819E+00 -1.68306369588789E+00  2.98994451606806E+00
 Reduced coordinates (xred)
  3.40183933912382E-01  6.59816206440122E-01  6.18321274525126E-08
  6.63240700996730E-01  3.36758039041717E-01 -7.91105864747212E-02
  6.63242031757556E-01  3.36759087851494E-01  7.91105246425938E-02
 Cartesian forces (fcart) [Ha/bohr]; max,rms= 1.06422E-03 6.47474E-04 (free atoms)
 -1.03044264913851E-07 -1.00333345913086E-03 -1.00185917830062E-06
  4.21521080986625E-07  5.01577253168226E-04  1.06421813259802E-03
 -3.18476816072774E-07  5.01756205962632E-04 -1.06321627341972E-03
 Gradient of E wrt nuclear positions in reduced coordinates (gred)
 -5.17201287711375E-03  5.17262626225054E-03  3.78647894141204E-05
  2.58444394086326E-03 -2.58695310298051E-03 -4.02216163252246E-02
  2.58756893625049E-03 -2.58567315927003E-03  4.01837515358105E-02
 Total energy (etotal) [Ha]= -9.16109657730204E+01
 
 Difference of energy with previous step (new-old):
           Absolute (Ha)=-4.95804E-04
           Relative     =-5.41207E-06
 
--- Iteration: ( 6/10) Internal Cycle: (1/1)
--------------------------------------------------------------------------------
 
---SELF-CONSISTENT-FIELD CONVERGENCE--------------------------------------------

--- !BeginCycle
iteration_state: {dtset: 11, itime: 6, icycle: 1, }
solver: {iscf: 7, nstep: 20, nline: 4, wfoptalg: 0, }
tolerances: {toldff: 5.00E-05, }
...
 
     iter   Etot(hartree)      deltaE(h)  residm     vres2    diffor    maxfor
 ETOT  1  -91.610866385360    -9.161E+01 9.201E-07 1.454E+00 3.206E-03 4.271E-03
 ETOT  2  -91.610866508069    -1.227E-07 3.830E-07 1.746E-01 6.579E-03 2.309E-03
 ETOT  3  -91.610684565532     1.819E-04 2.669E-06 9.549E-01 6.283E-03 3.975E-03
 ETOT  4  -91.610972598845    -2.880E-04 9.801E-07 3.046E-02 3.851E-03 6.127E-04
 ETOT  5  -91.610973142876    -5.440E-07 5.250E-09 2.398E-02 3.012E-05 5.897E-04
 ETOT  6  -91.610973545263    -4.024E-07 8.768E-10 1.560E-02 1.399E-04 5.772E-04
 ETOT  7  -91.610973677198    -1.319E-07 4.299E-10 1.105E-02 2.873E-05 5.829E-04
 ETOT  8  -91.610973749367    -7.217E-08 5.176E-10 7.794E-03 4.571E-05 5.746E-04
 
 At SCF step    8, forces are converged : 
  for the second time, max diff in force=  4.571E-05 < toldff=  5.000E-05
 
 Cartesian components of stress tensor (hartree/bohr^3)
  sigma(1 1)=  1.06167672E-03  sigma(3 2)= -3.82263915E-10
  sigma(2 2)=  9.66855381E-04  sigma(3 1)=  1.51784757E-09
  sigma(3 3)=  1.03071150E-03  sigma(2 1)= -7.27694698E-11
 

--- !ResultsGS
iteration_state: {dtset: 11, itime: 6, icycle: 1, }
comment   : Summary of ground state results
lattice_vectors:
- [  2.9763187,  -5.1551351,   0.0000000, ]
- [  2.9763187,   5.1551351,   0.0000000, ]
- [  0.0000000,   0.0000000,  37.7945227, ]
lattice_lengths: [   5.95264,    5.95264,   37.79452, ]
lattice_angles: [ 90.000,  90.000, 120.000, ] # degrees, (23, 13, 12)
lattice_volume:   1.1597873E+03
convergence: {deltae: -7.217E-08, res2:  7.794E-03, residm:  5.176E-10, diffor:  4.571E-05, }
etotal    :  -9.16109737E+01
entropy   :   0.00000000E+00
fermie    :  -7.27977923E-02
cartesian_stress_tensor: # hartree/bohr^3
- [  1.06167672E-03,  -7.27694698E-11,   1.51784757E-09, ]
- [ -7.27694698E-11,   9.66855381E-04,  -3.82263915E-10, ]
- [  1.51784757E-09,  -3.82263915E-10,   1.03071150E-03, ]
pressure_GPa:  -3.0002E+01
xred      :
- [  3.4036E-01,   6.5964E-01,   3.5416E-08, Mo]
- [  6.6315E-01,   3.3685E-01,  -7.8947E-02,  S]
- [  6.6315E-01,   3.3685E-01,   7.8947E-02,  S]
cartesian_forces: # hartree/bohr
- [  4.09718638E-08,  -5.74571261E-04,  -6.23002533E-07, ]
- [ -3.74134797E-08,   2.87215650E-04,  -6.01962482E-05, ]
- [ -3.55838410E-09,   2.87355611E-04,   6.08192508E-05, ]
force_length_stats: {min:   2.93455992E-04, max:   5.74571600E-04, mean:   3.87249646E-04, }
...

 Integrated electronic density in atomic spheres:
 ------------------------------------------------
[...]
              wtk31      0.50000    0.50000
              wtk32      0.12500    0.12500    0.12500    0.12500    0.12500    0.12500
                         0.12500    0.12500
              wtk33      0.05556    0.05556    0.05556    0.05556    0.05556    0.05556
                         0.05556    0.05556    0.05556    0.05556    0.05556    0.05556
                         0.05556    0.05556    0.05556    0.05556    0.05556    0.05556
              wtk41      0.50000    0.50000
              wtk42      0.12500    0.12500    0.12500    0.12500    0.12500    0.12500
                         0.12500    0.12500
              wtk43      0.05556    0.05556    0.05556    0.05556    0.05556    0.05556
                         0.05556    0.05556    0.05556    0.05556    0.05556    0.05556
                         0.05556    0.05556    0.05556    0.05556    0.05556    0.05556
              wtk51      0.50000    0.50000
              wtk52      0.12500    0.12500    0.12500    0.12500    0.12500    0.12500
                         0.12500    0.12500
              wtk53      0.05556    0.05556    0.05556    0.05556    0.05556    0.05556
                         0.05556    0.05556    0.05556    0.05556    0.05556    0.05556
                         0.05556    0.05556    0.05556    0.05556    0.05556    0.05556
              wtk61      0.50000    0.50000
              wtk62      0.12500    0.12500    0.12500    0.12500    0.12500    0.12500
                         0.12500    0.12500
              wtk63      0.05556    0.05556    0.05556    0.05556    0.05556    0.05556
                         0.05556    0.05556    0.05556    0.05556    0.05556    0.05556
                         0.05556    0.05556    0.05556    0.05556    0.05556    0.05556
           xangst11    1.5750001830E+00  8.7063584679E-01  3.4108538413E-07
                       1.5749982456E+00 -8.8998096401E-01 -1.5788507251E+00
                       1.5750015713E+00 -8.8998155674E-01  1.5788503840E+00
           xangst12    1.5749998634E+00  9.1223459440E-01 -1.4173996360E-07
                       1.5750000989E+00 -9.1078072221E-01 -1.5933594966E+00
                       1.5750000377E+00 -9.1078054616E-01  1.5933596383E+00
           xangst13    1.5750000458E+00  9.0937680078E-01 -1.0352660593E-06
                       1.5750000045E+00 -9.0935171762E-01 -1.5919045626E+00
                       1.5749999497E+00 -9.0935175713E-01  1.5919055978E+00
           xangst21    1.5749998905E+00  8.6840350865E-01  2.0003629369E-07
                       1.5749999100E+00 -8.8886480104E-01 -1.5647643977E+00
                       1.5750001995E+00 -8.8886538157E-01  1.5647641976E+00
           xangst22    1.5750000453E+00  9.1156224499E-01  1.7395840080E-07
                       1.5750023143E+00 -9.1044446661E-01 -1.5764020375E+00
                       1.5749976403E+00 -9.1044445235E-01  1.5764018635E+00
           xangst23    1.5749998462E+00  9.0944128580E-01  3.1637716670E-08
                       1.5749999289E+00 -9.0938396592E-01 -1.5765850799E+00
                       1.5750002249E+00 -9.0938399385E-01  1.5765850483E+00
           xangst31    1.5749997502E+00  8.6834484568E-01 -3.8060545452E-06
                       1.5750004963E+00 -8.8883753884E-01 -1.5627488775E+00
                       1.5749997535E+00 -8.8883398081E-01  1.5627526836E+00
           xangst32    1.5750000235E+00  9.1135189523E-01  9.8036124022E-09
                       1.5749992078E+00 -9.1033921561E-01 -1.5757383340E+00
                       1.5750007687E+00 -9.1033935359E-01  1.5757383241E+00
           xangst33    1.5749999617E+00  9.0945309616E-01  8.1385077818E-07
                       1.5750006317E+00 -9.0938994209E-01 -1.5746197422E+00
                       1.5749994066E+00 -9.0938982804E-01  1.5746189283E+00
           xangst41    1.5750000767E+00  8.6796170163E-01 -3.5258336400E-06
                       1.5749997702E+00 -8.8864613851E-01 -1.5619905262E+00
                       1.5750001531E+00 -8.8864223709E-01  1.5619940520E+00
           xangst42    1.5750002721E+00  9.1124141923E-01  6.6571100459E-08
                       1.5750006910E+00 -9.1028410402E-01 -1.5753062803E+00
                       1.5749990369E+00 -9.1028398918E-01  1.5753062137E+00
           xangst43    1.5749999024E+00  9.0945382874E-01  8.2279018856E-07
                       1.5749999274E+00 -9.0939021524E-01 -1.5740753206E+00
                       1.5750001702E+00 -9.0939028747E-01  1.5740744978E+00
           xangst51    1.5750005343E+00  8.6841516605E-01 -1.4580939088E-05
                       1.5749990286E+00 -8.8887207721E-01 -1.5619492293E+00
                       1.5750004371E+00 -8.8886976281E-01  1.5619638102E+00
           xangst52    1.5750002088E+00  9.1126365491E-01  3.0400208163E-06
                       1.5750003330E+00 -9.1029549766E-01 -1.5752862198E+00
                       1.5749994583E+00 -9.1029483121E-01  1.5752831798E+00
           xangst53    1.5750000759E+00  9.0945237298E-01 -1.4091166102E-06
                       1.5749998993E+00 -9.0938947862E-01 -1.5741114520E+00
                       1.5750000249E+00 -9.0938956833E-01  1.5741128611E+00
           xangst61    1.5749996572E+00  8.6836671210E-01 -3.4735343158E-06
                       1.5750009422E+00 -8.8884990971E-01 -1.5616354601E+00
                       1.5749994006E+00 -8.8884347636E-01  1.5616389336E+00
           xangst62    1.5750001412E+00  9.1144104832E-01  1.7416252511E-06
                       1.5749994368E+00 -9.1038428794E-01 -1.5742496429E+00
                       1.5750004220E+00 -9.1038343435E-01  1.5742479012E+00
           xangst63    1.5749996314E+00  9.0945756376E-01 -1.7312963894E-07
                       1.5750003177E+00 -9.0939204786E-01 -1.5735695576E+00
                       1.5750000509E+00 -9.0939218987E-01  1.5735697307E+00
            xcart11    2.9763190052E+00  1.6452633119E+00  6.4455796394E-07
                       2.9763153440E+00 -1.6818202855E+00 -2.9835954751E+00
                       2.9763216287E+00 -1.6818214056E+00  2.9835948305E+00
            xcart12    2.9763184012E+00  1.7238735524E+00 -2.6784971328E-07
                       2.9763188462E+00 -1.7211261321E+00 -3.0110130797E+00
                       2.9763187305E+00 -1.7211257994E+00  3.0110133476E+00
            xcart13    2.9763187459E+00  1.7184731051E+00 -1.9563693267E-06
                       2.9763186678E+00 -1.7184257048E+00 -3.0082636529E+00
                       2.9763185642E+00 -1.7184257794E+00  3.0082656093E+00
            xcart21    2.9763184523E+00  1.6410448042E+00  3.7801381171E-07
                       2.9763184893E+00 -1.6797110431E+00 -2.9569761741E+00
                       2.9763190363E+00 -1.6797121402E+00  2.9569757961E+00
            xcart22    2.9763187450E+00  1.7226029961E+00  3.2873373602E-07
                       2.9763230328E+00 -1.7204907011E+00 -2.9789681261E+00
                       2.9763142002E+00 -1.7204906741E+00  2.9789677974E+00
            xcart23    2.9763183686E+00  1.7185949641E+00  5.9786619976E-08
                       2.9763185250E+00 -1.7184866452E+00 -2.9793140262E+00
                       2.9763190843E+00 -1.7184866980E+00  2.9793139664E+00
            xcart31    2.9763181872E+00  1.6409339472E+00 -7.1924007372E-06
                       2.9763195971E+00 -1.6796595250E+00 -2.9531673930E+00
                       2.9763181935E+00 -1.6796528013E+00  2.9531745854E+00
            xcart32    2.9763187037E+00  1.7222054927E+00  1.8526142553E-08
                       2.9763171623E+00 -1.7202918055E+00 -2.9777139083E+00
                       2.9763201119E+00 -1.7202920663E+00  2.9777138897E+00
            xcart33    2.9763185870E+00  1.7186172824E+00  1.5379550838E-06
                       2.9763198530E+00 -1.7184979385E+00 -2.9756000761E+00
                       2.9763175379E+00 -1.7184977230E+00  2.9755985382E+00
            xcart41    2.9763188043E+00  1.6402099099E+00 -6.6628599697E-06
                       2.9763182251E+00 -1.6792978308E+00 -2.9517343166E+00
                       2.9763189485E+00 -1.6792904582E+00  2.9517409795E+00
            xcart42    2.9763191735E+00  1.7219967233E+00  1.2580114823E-07
                       2.9763199651E+00 -1.7201876597E+00 -2.9768974452E+00
                       2.9763168393E+00 -1.7201874427E+00  2.9768973194E+00
            xcart43    2.9763184749E+00  1.7186186668E+00  1.5548481212E-06
                       2.9763185221E+00 -1.7184984547E+00 -2.9745712684E+00
                       2.9763189809E+00 -1.7184985912E+00  2.9745697135E+00
            xcart51    2.9763196689E+00  1.6410668335E+00 -2.7553981637E-05
                       2.9763168236E+00 -1.6797247931E+00 -2.9516562768E+00
                       2.9763194854E+00 -1.6797204195E+00  2.9516838308E+00
            xcart52    2.9763190538E+00  1.7220387426E+00  5.7448067811E-06
                       2.9763192885E+00 -1.7202091906E+00 -2.9768595363E+00
                       2.9763176356E+00 -1.7202079312E+00  2.9768537915E+00
            xcart53    2.9763188026E+00  1.7186159158E+00 -2.6628444826E-06
                       2.9763184690E+00 -1.7184970627E+00 -2.9746395470E+00
                       2.9763187063E+00 -1.7184972322E+00  2.9746422098E+00
            xcart61    2.9763180115E+00  1.6409752688E+00 -6.5640285700E-06
                       2.9763204398E+00 -1.6796829026E+00 -2.9510633390E+00
                       2.9763175266E+00 -1.6796707453E+00  2.9510699030E+00
            xcart62    2.9763189262E+00  1.7223739676E+00  3.2911947508E-06
                       2.9763175950E+00 -1.7203769799E+00 -2.9749006898E+00
                       2.9763194567E+00 -1.7203753668E+00  2.9748973986E+00
            xcart63    2.9763179628E+00  1.7186257250E+00 -3.2716760308E-07
                       2.9763192596E+00 -1.7185019179E+00 -2.9736155149E+00
                       2.9763187556E+00 -1.7185021862E+00  2.9736158421E+00
             xred11    3.4042487064E-01  6.5957524557E-01  1.7054269207E-08
                       6.6312031581E-01  3.3687857032E-01 -7.8942536254E-02
                       6.6312148022E-01  3.3687951745E-01  7.8942519199E-02
             xred12    3.3280030945E-01  6.6719960383E-01 -7.0869981798E-09
                       6.6693320446E-01  3.3306685834E-01 -7.9667974828E-02
                       6.6693315275E-01  3.3306687116E-01  7.9667981915E-02
             xred13    3.3332416036E-01  6.6667586875E-01 -5.1763302963E-08
                       6.6667125824E-01  3.3332874462E-01 -7.9595228128E-02
                       6.6667124807E-01  3.3332871996E-01  7.9595279891E-02
             xred21    3.4083393365E-01  6.5916599681E-01  1.0001814684E-08
                       6.6291626736E-01  3.3708367552E-01 -7.8238219884E-02
                       6.6291646566E-01  3.3708366101E-01  7.8238209882E-02
             xred22    3.3292359930E-01  6.6707642948E-01  8.6979200399E-09
                       6.6687227689E-01  3.3312919252E-01 -7.8820101873E-02
                       6.6687079047E-01  3.3312771133E-01  7.8820093175E-02
             xred23    3.3331227777E-01  6.6668762455E-01  1.5818858335E-09
                       6.6667714491E-01  3.3332280998E-01 -7.8829253995E-02
                       6.6667724398E-01  3.3332289881E-01  7.8829252413E-02
             xred31    3.4084464121E-01  6.5915520019E-01 -1.9030272726E-07
                       6.6291145670E-01  3.3708885840E-01 -7.8137443877E-02
                       6.6291056877E-01  3.3708927474E-01  7.8137634180E-02
             xred32    3.3296214649E-01  6.6703786842E-01  4.9018062011E-10
                       6.6685199969E-01  3.3314749735E-01 -7.8786916698E-02
                       6.6685252049E-01  3.3314796756E-01  7.8786916207E-02
             xred33    3.3331014980E-01  6.6668982591E-01  4.0692538909E-08
                       6.6667846335E-01  3.3332193772E-01 -7.8730987108E-02
                       6.6667805352E-01  3.3332156970E-01  7.8730946415E-02
             xred41    3.4091496973E-01  6.5908507899E-01 -1.7629168200E-07
                       6.6287614524E-01  3.3712370886E-01 -7.8099526308E-02
                       6.6287555170E-01  3.3712454548E-01  7.8099702600E-02
             xred42    3.3298247409E-01  6.6701769866E-01  3.3285550229E-09
                       6.6684236937E-01  3.3315806937E-01 -7.8765314015E-02
                       6.6684182320E-01  3.3315756530E-01  7.8765310686E-02
             xred43    3.3330999669E-01  6.6668994135E-01  4.1139509428E-08
                       6.6667828984E-01  3.3332166408E-01 -7.8703766028E-02
                       6.6667838014E-01  3.3332172791E-01  7.8703724888E-02
             xred51    3.4083200139E-01  6.5916833783E-01 -7.2904695442E-07
                       6.6291732115E-01  3.3708206207E-01 -7.8097461465E-02
                       6.6291734412E-01  3.3708293343E-01  7.8098190512E-02
             xred52    3.3297837850E-01  6.6702175404E-01  1.5200104082E-07
                       6.6684434400E-01  3.3315586741E-01 -7.8764310990E-02
                       6.6684394417E-01  3.3315571188E-01  7.8764158989E-02
             xred53    3.3331031857E-01  6.6668972959E-01 -7.0455830511E-08
                       6.6667814589E-01  3.3332179016E-01 -7.8705572601E-02
                       6.6667820220E-01  3.3332181358E-01  7.8705643057E-02
             xred61    3.4084060388E-01  6.5915917848E-01 -1.7367671579E-07
                       6.6291386566E-01  3.3708673255E-01 -7.8081773004E-02
                       6.6291219712E-01  3.3708742230E-01  7.8081946681E-02
             xred62    3.3294584338E-01  6.6705424630E-01  8.7081262557E-08
                       6.6686033349E-01  3.3313930891E-01 -7.8712482143E-02
                       6.6686048980E-01  3.3313977812E-01  7.8712395061E-02
             xred63    3.3330922608E-01  6.6669053989E-01 -8.6564819471E-09
                       6.6667874961E-01  3.3332145207E-01 -7.8678477881E-02
                       6.6667869097E-01  3.3332134137E-01  7.8678486537E-02
            znucl       42.00000   16.00000
 
================================================================================


- Timing analysis has been suppressed with timopt=0



================================================================================

 Suggested references for the acknowledgment of ABINIT usage.

 The users of ABINIT have little formal obligations with respect to the ABINIT group
 (those specified in the GNU General Public License, http://www.gnu.org/copyleft/gpl.txt).
 However, it is common practice in the scientific literature,
 to acknowledge the efforts of people that have made the research possible.
 In this spirit, please find below suggested citations of work written by ABINIT developers,
 corresponding to implementations inside of ABINIT that you have used in the present run.
 Note also that it will be of great value to readers of publications presenting these results,
 to read papers enabling them to understand the theoretical formalism and details
 of the ABINIT implementation.
 For information on why they are suggested, see also https://docs.abinit.org/theory/acknowledgments.
-
- [1] The Abinit project: Impact, environment and recent developments.
- Computer Phys. Comm. 248, 107042 (2020).
- X.Gonze, B. Amadon, G. Antonius, F.Arnardi, L.Baguet, J.-M.Beuken,
- J.Bieder, F.Bottin, J.Bouchet, E.Bousquet, N.Brouwer, F.Bruneval,
- G.Brunin, T.Cavignac, J.-B. Charraud, Wei Chen, M.Cote, S.Cottenier,
- J.Denier, G.Geneste, Ph.Ghosez, M.Giantomassi, Y.Gillet, O.Gingras,
- D.R.Hamann, G.Hautier, Xu He, N.Helbig, N.Holzwarth, Y.Jia, F.Jollet,
- W.Lafargue-Dit-Hauret, K.Lejaeghere, M.A.L.Marques, A.Martin, C.Martins,
- H.P.C. Miranda, F.Naccarato, K. Persson, G.Petretto, V.Planes, Y.Pouillon,
- S.Prokhorenko, F.Ricci, G.-M.Rignanese, A.H.Romero, M.M.Schmitt, M.Torrent,
- M.J.van Setten, B.Van Troeye, M.J.Verstraete, G.Zerah and J.W.Zwanzig
- Comment: the fifth generic paper describing the ABINIT project.
- Note that a version of this paper, that is not formatted for Computer Phys. Comm. 
- is available at https://www.abinit.org/sites/default/files/ABINIT20.pdf .
- The licence allows the authors to put it on the Web.
- DOI and bibtex: see https://docs.abinit.org/theory/bibliography/#gonze2020
-
- [2] Optimized norm-conserving Vanderbilt pseudopotentials.
- D.R. Hamann, Phys. Rev. B 88, 085117 (2013).
- Comment: Some pseudopotential generated using the ONCVPSP code were used.
- DOI and bibtex: see https://docs.abinit.org/theory/bibliography/#hamann2013
-
- [3] ABINIT: Overview, and focus on selected capabilities
- J. Chem. Phys. 152, 124102 (2020).
- A. Romero, D.C. Allan, B. Amadon, G. Antonius, T. Applencourt, L.Baguet,
- J.Bieder, F.Bottin, J.Bouchet, E.Bousquet, F.Bruneval,
- G.Brunin, D.Caliste, M.Cote,
- J.Denier, C. Dreyer, Ph.Ghosez, M.Giantomassi, Y.Gillet, O.Gingras,
- D.R.Hamann, G.Hautier, F.Jollet, G. Jomard,
- A.Martin, 
- H.P.C. Miranda, F.Naccarato, G.Petretto, N.A. Pike, V.Planes,
- S.Prokhorenko, T. Rangel, F.Ricci, G.-M.Rignanese, M.Royo, M.Stengel, M.Torrent,
- M.J.van Setten, B.Van Troeye, M.J.Verstraete, J.Wiktor, J.W.Zwanziger, and X.Gonze.
- Comment: a global overview of ABINIT, with focus on selected capabilities .
- Note that a version of this paper, that is not formatted for J. Chem. Phys 
- is available at https://www.abinit.org/sites/default/files/ABINIT20_JPC.pdf .
- The licence allows the authors to put it on the Web.
- DOI and bibtex: see https://docs.abinit.org/theory/bibliography/#romero2020
-
- [4] Recent developments in the ABINIT software package.
- Computer Phys. Comm. 205, 106 (2016).
- X.Gonze, F.Jollet, F.Abreu Araujo, D.Adams, B.Amadon, T.Applencourt,
- C.Audouze, J.-M.Beuken, J.Bieder, A.Bokhanchuk, E.Bousquet, F.Bruneval
- D.Caliste, M.Cote, F.Dahm, F.Da Pieve, M.Delaveau, M.Di Gennaro,
- B.Dorado, C.Espejo, G.Geneste, L.Genovese, A.Gerossier, M.Giantomassi,
- Y.Gillet, D.R.Hamann, L.He, G.Jomard, J.Laflamme Janssen, S.Le Roux,
- A.Levitt, A.Lherbier, F.Liu, I.Lukacevic, A.Martin, C.Martins,
- M.J.T.Oliveira, S.Ponce, Y.Pouillon, T.Rangel, G.-M.Rignanese,
- A.H.Romero, B.Rousseau, O.Rubel, A.A.Shukri, M.Stankovski, M.Torrent,
- M.J.Van Setten, B.Van Troeye, M.J.Verstraete, D.Waroquier, J.Wiktor,
- B.Xu, A.Zhou, J.W.Zwanziger.
- Comment: the fourth generic paper describing the ABINIT project.
- Note that a version of this paper, that is not formatted for Computer Phys. Comm. 
- is available at https://www.abinit.org/sites/default/files/ABINIT16.pdf .
- The licence allows the authors to put it on the Web.
- DOI and bibtex: see https://docs.abinit.org/theory/bibliography/#gonze2016
-
- And optionally:
-
- [5] ABINIT: First-principles approach of materials and nanosystem properties.
- Computer Phys. Comm. 180, 2582-2615 (2009).
- X. Gonze, B. Amadon, P.-M. Anglade, J.-M. Beuken, F. Bottin, P. Boulanger, F. Bruneval,
- D. Caliste, R. Caracas, M. Cote, T. Deutsch, L. Genovese, Ph. Ghosez, M. Giantomassi
- S. Goedecker, D.R. Hamann, P. Hermet, F. Jollet, G. Jomard, S. Leroux, M. Mancini, S. Mazevet,
- M.J.T. Oliveira, G. Onida, Y. Pouillon, T. Rangel, G.-M. Rignanese, D. Sangalli, R. Shaltaf,
- M. Torrent, M.J. Verstraete, G. Zerah, J.W. Zwanziger
- Comment: the third generic paper describing the ABINIT project.
- Note that a version of this paper, that is not formatted for Computer Phys. Comm. 
- is available at https://www.abinit.org/sites/default/files/ABINIT_CPC_v10.pdf .
- The licence allows the authors to put it on the Web.
- DOI and bibtex: see https://docs.abinit.org/theory/bibliography/#gonze2009
-
- Proc.   0 individual time (sec): cpu=       3594.8  wall=       3652.8
 
================================================================================
 
 Calculation completed.
.Delivered  58 WARNINGs and  60 COMMENTs to log file.
+Overall time at end (sec) : cpu=       3594.8  wall=       3652.8
