  ABINIT 9.10.3
  
-instrng: 67 lines of input have been read from file tbase1_1.abi
 

.Version 9.10.3 of ABINIT 
.(MPI version, prepared for a x86_64_linux_intel2021.6 computer) 

.Copyright (C) 1998-2022 ABINIT group . 
 ABINIT comes with ABSOLUTELY NO WARRANTY.
 It is free software, and you are welcome to redistribute it
 under certain conditions (GNU General Public License,
 see ~abinit/COPYING or http://www.gnu.org/copyleft/gpl.txt).

 ABINIT is a project of the Universite Catholique de Louvain,
 Corning Inc. and other collaborators, see ~abinit/doc/developers/contributors.txt .
 Please read https://docs.abinit.org/theory/acknowledgments for suggested
 acknowledgments of the ABINIT effort.
 For more information, see https://www.abinit.org .

.Starting date : Wed 23 Apr 2025.
- ( at 05h53 )
  
 
 ++++++++++++++++++++++++++++++++++++++++++++++++++++++++++++++++++++++++++++++
 
 === Build Information === 
  Version       : 9.10.3
  Build target  : x86_64_linux_intel2021.6
  Build date    : 20240126
 
 === Compiler Suite === 
  C compiler       : intel2021.6
  C++ compiler     : gnu2021.6
  Fortran compiler : intel2021.6
  CFLAGS           : -g -O2
  CXXFLAGS         : -g -O2 -mtune=native -march=native
  FCFLAGS          : -g -extend-source -nofpscomp     -I/shared/ucl/apps/NetCDF/4.9.2-in ...
  FC_LDFLAGS       :   -static-intel -static-libgcc
 
 === Optimizations === 
  Debug level        : basic
  Optimization level : standard
  Architecture       : intel_xeon
 
 === Multicore === 
  Parallel build : /shared/ucl/apps/intel/2020/impi/2019.6.166/intel64
  Parallel I/O   : 
  openMP support : 
  GPU support    : 
 
 === Connectors / Fallbacks === 
  LINALG flavor  : mkl
  FFT flavor     : dfti
  HDF5           : yes
  NetCDF         : yes
  NetCDF Fortran : yes
  LibXC          : yes
  Wannier90      : no
 
 === Experimental features === 
  Exports             : 
  GW double-precision : 
 
 ++++++++++++++++++++++++++++++++++++++++++++++++++++++++++++++++++++++++++++++
 

 ++++++++++++++++++++++++++++++++++++++++++++++++++++++++++++++++++++++++++++++
 Default optimizations:
   -O3


 Optimizations for 43_ptgroups:
   -O0


 ++++++++++++++++++++++++++++++++++++++++++++++++++++++++++++++++++++++++++++++


 ++++++++++++++++++++++++++++++++++++++++++++++++++++++++++++++++++++++++++++++
 CPP options activated during the build:

                  CC_INTEL                   CXX_GNU                  FC_INTEL
 
                 HAVE_DFTI HAVE_FC_ALLOCATABLE_DT...             HAVE_FC_ASYNC
 
  HAVE_FC_COMMAND_ARGUMENT      HAVE_FC_COMMAND_LINE        HAVE_FC_CONTIGUOUS
 
           HAVE_FC_CPUTIME              HAVE_FC_EXIT             HAVE_FC_FLUSH
 
             HAVE_FC_GAMMA   HAVE_FC_IEEE_ARITHMETIC   HAVE_FC_IEEE_EXCEPTIONS
 
             HAVE_FC_IOMSG     HAVE_FC_ISO_C_BINDING  HAVE_FC_ISO_FORTRAN_2008
 
        HAVE_FC_LONG_LINES        HAVE_FC_MOVE_ALLOC  HAVE_FC_ON_THE_FLY_SHAPE
 
           HAVE_FC_PRIVATE         HAVE_FC_PROTECTED           HAVE_FC_SHIFTLR
 
         HAVE_FC_STREAM_IO                 HAVE_HDF5             HAVE_HDF5_MPI
 
        HAVE_LIBPAW_ABINIT      HAVE_LIBTETRA_ABINIT                HAVE_LIBXC
 
         HAVE_LINALG_AXPBY        HAVE_LINALG_GEMM3M         HAVE_LINALG_GEMMT
 
  HAVE_LINALG_MKL_IMATCOPY   HAVE_LINALG_MKL_OMATADD  HAVE_LINALG_MKL_OMATCOPY
 
   HAVE_LINALG_MKL_THREADS     HAVE_LINALG_SCALAPACK                  HAVE_MPI
 
                 HAVE_MPI2       HAVE_MPI_IALLGATHER       HAVE_MPI_IALLREDUCE
 
        HAVE_MPI_IALLTOALL       HAVE_MPI_IALLTOALLV           HAVE_MPI_IBCAST
 
         HAVE_MPI_IGATHERV        HAVE_MPI_INTEGER16               HAVE_MPI_IO
 
 HAVE_MPI_TYPE_CREATE_S...               HAVE_NETCDF       HAVE_NETCDF_FORTRAN
 
   HAVE_NETCDF_FORTRAN_MPI           HAVE_NETCDF_MPI             HAVE_OS_LINUX
 
         HAVE_TIMER_ABINIT                                                      
 ++++++++++++++++++++++++++++++++++++++++++++++++++++++++++++++++++++++++++++++

- input  file    -> tbase1_1.abi
- output file    -> tbase1_1.abo
- root for input  files -> tbase1_1i
- root for output files -> tbase1_1o
 
 Netcdf library supports MPI-IO
-instrng: 67 lines of input have been read from file tbase1_1.abi
 
 For atom type 1, psp file is /home/mmm1483/Scratch/abinit_code/basic1/persudo/H.psp8
  read the values zionpsp=  1.0 , pspcod=   8 , lmax=   1
 
 inpspheads: deduce mpsang = 2, n1xccc = 0.

======================================================= 
 invars1m : enter jdtset= 0
 
 symlatt: the Bravais lattice is cP (primitive cubic)
  xcart  is defined in input file (possibly in Angstrom)
 ingeo: takes atomic coordinates from input array xcart
 
--- !COMMENT
src_file: m_ingeo.F90
src_line: 890
message: |
    The tolerance on symmetries =   1.000E-05 is bigger than 1.0e-8.
    In order to avoid spurious effects, the atomic coordinates have been
    symmetrized before storing them in the dataset internal variable.
    So, do not be surprised by the fact that your input variables (xcart, xred, ...)
    do not correspond exactly to the ones echoed by ABINIT, the latter being used to do the calculations.
    This is not a problem per se.
    Still, in order to avoid this symmetrization (e.g. for specific debugging/development), decrease tolsym to 1.0e-8 or lower,
    or (much preferred) use input primitive vectors that are accurate to better than 1.0e-8.
    This message will only be printed once, even if there are other datasets where tolsym is bigger than 1.0e-8.
...
 
 
 symlatt: the Bravais lattice is cP (primitive cubic)
 
 symlatt: the Bravais lattice is cP (primitive cubic)
 
--- !COMMENT
src_file: m_symfind.F90
src_line: 995
message: |
    The Bravais lattice determined only from the primitive
    vectors, bravais(1)=  7, is more symmetric
    than the real one, iholohedry=  4, obtained by taking into
    account the atomic positions. Start deforming the primitive vector set.
...
 
 
 symlatt: the Bravais lattice is tP (primitive tetragonal)
 symspgr: spgroup= 123  P4/m m m   (=D4h^1)
 symspgr: optical characteristics = uniaxial
 Optical axis (in reduced coordinates, real space ) :   1   0   0
 inkpts: Sum of 1 k point weights is    1.000000
 invars2: take the default value of fband=  1.25000000E-01
 inkpts: Sum of 1 k point weights is    1.000000
 LMac pawujat is:            0
 For input ecut=  1.000000E+01 best grid ngfft=      30      30      30
       max ecut=  1.110330E+01
 
 ==== FFT mesh ====
  FFT mesh divisions ........................    30   30   30
  Augmented FFT divisions ...................    31   31   30
  FFT algorithm .............................   512
  FFT cache size ............................    16
 getmpw: optimal value of mpw= 752
 
 Symmetries : space group P4/m m m (#123); Bravais tP (primitive tetrag.)
 
 getdim_nloc: deduce lmnmax  =   5, lnmax  =   3,
                      lmnmaxso=   5, lnmaxso=   3.
memory: analysis of memory needs
================================================================================
 Values of the parameters that define the memory need of the present run
     intxc =       0    ionmov =       0      iscf =       7    lmnmax =       3
     lnmax =       3     mgfft =      30  mpssoang =       2    mqgrid =    3001
     natom =       2  nloc_mem =       1    nspden =       1   nspinor =       1
    nsppol =       1      nsym =      16    n1xccc =       0    ntypat =       1
    occopt =       1   xclevel =       2
-    mband =           2        mffmem =           1         mkmem =           1
       mpw =         752          nfft =       27000          nkpt =           1
================================================================================
P This job should need less than                       8.772 Mbytes of memory.
  Rough estimation (10% accuracy) of disk space for files :
_ WF disk file :      0.025 Mbytes ; DEN or POT disk file :      0.208 Mbytes.
================================================================================
 
 Biggest array : f_fftgr(disk), with      3.2979 MBytes.
 memana : allocated an array of      3.298 Mbytes, for testing purposes.
 memana: allocated       8.772Mbytes, for testing purposes. 
 The job will continue.
--------------------------------------------------------------------------------
------------- Echo of variables that govern the present computation ------------
--------------------------------------------------------------------------------
-
- outvars: echo of selected default values                                      
-   iomode0 =  0 , fftalg0 =512 , wfoptalg0 =  0
-
- outvars: echo of global parameters not present in the input file              
-  max_nthreads =    0
-
 -outvars: echo values of preprocessed input variables --------
 
 These variables are accessible in NetCDF format (tbase1_1o_OUT.nc)

            acell      1.0000000000E+01  1.0000000000E+01  1.0000000000E+01 Bohr
              amu      1.00794000E+00
           diemac      2.00000000E+00
             ecut      1.00000000E+01 Hartree
-          fftalg         512
           istwfk        2
              ixc          11
           kptopt           0
P           mkmem           1
            natom           2
            nband           2
            ngfft          30      30      30
             nkpt           1
            nstep          10
             nsym          16
           ntypat           1
              occ      2.000000  0.000000
          spgroup         123
           symrel      1  0  0   0  1  0   0  0  1      -1  0  0   0 -1  0   0  0 -1
                      -1  0  0   0  1  0   0  0 -1       1  0  0   0 -1  0   0  0  1
                      -1  0  0   0 -1  0   0  0  1       1  0  0   0  1  0   0  0 -1
                       1  0  0   0 -1  0   0  0 -1      -1  0  0   0  1  0   0  0  1
                       1  0  0   0  0  1   0  1  0      -1  0  0   0  0 -1   0 -1  0
                      -1  0  0   0  0  1   0 -1  0       1  0  0   0  0 -1   0  1  0
                      -1  0  0   0  0 -1   0  1  0       1  0  0   0  0  1   0 -1  0
                       1  0  0   0  0 -1   0 -1  0      -1  0  0   0  0  1   0  1  0
           toldfe      1.00000000E-06 Hartree
            typat      1  1
           xangst     -3.7042404601E-01  0.0000000000E+00  0.0000000000E+00
                       3.7042404601E-01  0.0000000000E+00  0.0000000000E+00
            xcart     -7.0000000000E-01  0.0000000000E+00  0.0000000000E+00
                       7.0000000000E-01  0.0000000000E+00  0.0000000000E+00
             xred     -7.0000000000E-02  0.0000000000E+00  0.0000000000E+00
                       7.0000000000E-02  0.0000000000E+00  0.0000000000E+00
            znucl        1.00000
 
================================================================================
 
 chkinp: Checking input parameters for consistency.
 DATA TYPE INFORMATION: 
 REAL:      Data type name: REAL(DP) 
            Kind value:      8
            Precision:      15
            Smallest nonnegligible quantity relative to 1: 0.22204460E-015
            Smallest positive number:                      0.22250739E-307
            Largest representable number:                  0.17976931E+309
 INTEGER:   Data type name: INTEGER(default) 
            Kind value: 4
            Bit size:   32
            Largest representable number: 2147483647
 LOGICAL:   Data type name: LOGICAL 
            Kind value: 4
 CHARACTER: Data type name: CHARACTER             Kind value: 1

  ==== OpenMP parallelism is OFF ====
 
  ==== Using MPI-2 specifications ==== 
  MPI-IO support is ON
  xmpi_tag_ub ................   1073741823
  xmpi_bsize_ch ..............            1
  xmpi_bsize_int .............            4
  xmpi_bsize_sp ..............            4
  xmpi_bsize_dp ..............            8
  xmpi_bsize_spc .............            8
  xmpi_bsize_dpc .............           16
  xmpio_bsize_frm ............            4
  xmpi_address_kind ..........            8
  xmpi_offset_kind ...........            8
  MPI_WTICK ..................   4.009456765670155E-010
 
================================================================================
== DATASET  1 ==================================================================
-   mpi_nproc: 1, omp_nthreads: -1 (-1 if OMP is not activated)
 
 
--- !COMMENT
src_file: m_xgScalapack.F90
src_line: 235
message: |
    xgScalapack in auto mode
...
 
 
 getdim_nloc: deduce lmnmax  =   5, lnmax  =   3,
                      lmnmaxso=   5, lnmaxso=   3.
 Exchange-correlation functional for the present dataset will be:
  GGA: Perdew-Burke-Ernzerhof functional - ixc=11
 Citation for XC functional:
  J.P.Perdew, K.Burke, M.Ernzerhof, PRL 77, 3865 (1996)
 
 Unit cell volume ucvol=  1.0000000E+03 bohr^3
 Angles (23,13,12)=  9.00000000E+01  9.00000000E+01  9.00000000E+01 degrees
 
 getcut: wavevector=  0.0000  0.0000  0.0000  ngfft=  30  30  30
         ecut(hartree)=     10.000   => boxcut(ratio)=   2.10744
- pspini: atom type   1  psp file is /home/mmm1483/Scratch/abinit_code/basic1/persudo/H.psp8
- pspatm: opening atomic psp file    /home/mmm1483/Scratch/abinit_code/basic1/persudo/H.psp8
- H     ONCVPSP-3.2.3.1  r_core=   1.00957   0.70586
-  1.00000   1.00000    170501                znucl, zion, pspdat
    8   11    1    4       300   0.00000      pspcod,pspxc,lmax,lloc,mmax,r2well
    2.99000000000000    0.00000000000000    0.00000000000000   rchrg,fchrg,qchrg
     nproj     2     1
     extension_switch     1
  valence charge (before rescaling) integrates to:   0.903265027300618     
  pspatm : epsatm=    0.36235122
         --- l  ekb(1:nproj) -->
             0   -1.701123   -0.534484
             1   -0.503321
 pspatm: atomic psp has been read  and splines computed
 
   1.44940486E+00                                ecore*ucvol(ha*bohr**3)
 ==== Info on pseudopotentials ====
  Norm-conserving pseudopotentials
  Number of pseudopotentials ..    1
  Number of types of atoms   ..    1
  Scalar calculation (no spin-orbit term)
  Nonlocal part applied using Legendre polynomials
  Max number of non-local projectors over l and type   2
  Highest angular momentum +1 .......   2
  Max number of (l,n)   components ..   3
  Max number of (l,m,n) components ..   3
 
 Info on the Q-grid used for form factors in spline form: 
   Number of q-points for radial functions ffspl ..   3001
   Number of q-points for vlspl ...................   3001
   vloc is computed in Reciprocal Space
   model core charge treated in real-space
 
  XC functional for type 1 is 11
  Pseudo valence available: yes
 
 symatm: atom number 1 is reached starting at atom
   1  2  2  1  2  1  1  2  1  2  2  1  2  1  1  2
 symatm: atom number 2 is reached starting at atom
   2  1  1  2  1  2  2  1  2  1  1  2  1  2  2  1
 wfconv:     2 bands initialized randomly with npw=   752, for ikpt=     1
_setup2: Arith. and geom. avg. npw (full set) are    1503.000    1503.000
 initro: for itypat=  1, take pseudo charge density from pp file
 
================================================================================
 
 getcut: wavevector=  0.0000  0.0000  0.0000  ngfft=  30  30  30
         ecut(hartree)=     10.000   => boxcut(ratio)=   2.10744
 
 1/G**2 cut-off applied in the following step : cutoff-mode = CRYSTAL
 
 1/G**2 cut-off applied in the following step : cutoff-mode = CRYSTAL
 
 1/G**2 cut-off applied in the following step : cutoff-mode = CRYSTAL
 
--- !WARNING
src_file: m_drivexc.F90
src_line: 783
message: |
    Density went too small (lower than xc_denpos) at 1560 points
    and was set to xc_denpos =   1.00E-14. Lowest was  -0.38E-04.
    This might be due to (1) too low boxcut or (2) too low ecut for
     pseudopotential core charge, or (3) too low ecut for estimated initial density.
     Possible workarounds : increase ecut, or define the input variable densty,
     with a value larger than the guess for the decay length, or initialize your,
     density with a preliminary LDA or GGA-PBE if you are using a more exotic xc functional.
...
 
 
 ITER STEP NUMBER     1
 Max number of non-self-consistent loops: 2
 Total charge density [el/Bohr^3]
)     Maximum=    3.1770E-01  at reduced coord.    0.0000    0.0000    0.0000
)     Minimum=    0.0000E+00  at reduced coord.    0.5000    0.4000    0.3000
   Integrated=    2.0000E+00
 
 1/G**2 cut-off applied in the following step : cutoff-mode = CRYSTAL
 ETOT  1  -1.1386944549837    -1.139E+00 5.062E-04 2.741E+01
 scprqt: <Vxc>= -6.7376394E-02 hartree
 
 Simple mixing update:
  residual square of the potential:    21.0131127790225
{SCF_istep: 1 , Vnl|psi>: 20 , wall_time: '  0.06 [s] '} <<< TIME
 
 ITER STEP NUMBER     2
 Max number of non-self-consistent loops: 2
 Total charge density [el/Bohr^3]
)     Maximum=    2.7492E-01  at reduced coord.    0.0000    0.0000    0.0000
)     Minimum=    0.0000E+00  at reduced coord.    0.1000    0.5000    0.5000
   Integrated=    2.0000E+00
 ETOT  2  -1.1452008780381    -6.506E-03 4.421E-08 1.596E+00
 scprqt: <Vxc>= -7.5813404E-02 hartree
 
 Pulay update with  1 previous iterations:
 mixing of old trial potential: alpha(m:m-4)=  0.934      0.662E-01
{SCF_istep: 2 , Vnl|psi>: 19 , wall_time: '  0.01 [s] '} <<< TIME
 
 ITER STEP NUMBER     3
 Total charge density [el/Bohr^3]
)     Maximum=    2.8068E-01  at reduced coord.    0.0000    0.0000    0.0000
)     Minimum=    1.8919E-08  at reduced coord.    0.1000    0.5000    0.5000
   Integrated=    2.0000E+00
 ETOT  3  -1.1452871645447    -8.629E-05 2.920E-06 9.192E-02
 scprqt: <Vxc>= -7.5191828E-02 hartree
 
 Pulay update with  2 previous iterations:
 mixing of old trial potential: alpha(m:m-4)=   1.03     -0.926E-02 -0.164E-01
{SCF_istep: 3 , Vnl|psi>: 9 , wall_time: '  0.01 [s] '} <<< TIME
 
 ITER STEP NUMBER     4
 Total charge density [el/Bohr^3]
)     Maximum=    2.8010E-01  at reduced coord.    0.0000    0.0000    0.0000
)     Minimum=    0.0000E+00  at reduced coord.    0.1000    0.5000    0.5000
   Integrated=    2.0000E+00
 ETOT  4  -1.1452909981516    -3.834E-06 2.941E-07 1.166E-02
 scprqt: <Vxc>= -7.5425614E-02 hartree
 
 Pulay update with  3 previous iterations:
 mixing of old trial potential: alpha(m:m-4)=  0.846      0.181     -0.208E-01 -0.664E-02
{SCF_istep: 4 , Vnl|psi>: 8 , wall_time: '  0.01 [s] '} <<< TIME
 
 ITER STEP NUMBER     5
 Total charge density [el/Bohr^3]
)     Maximum=    2.8009E-01  at reduced coord.    0.0000    0.0000    0.0000
)     Minimum=    0.0000E+00  at reduced coord.    0.1000    0.5000    0.5000
   Integrated=    2.0000E+00
 ETOT  5  -1.1452910673249    -6.917E-08 4.601E-09 1.654E-03
 scprqt: <Vxc>= -7.5456434E-02 hartree
 
 Pulay update with  4 previous iterations:
 mixing of old trial potential: alpha(m:m-4)=   1.58     -0.584     -0.143E-02  0.183E-02  0.474E-04
{SCF_istep: 5 , Vnl|psi>: 8 , wall_time: '  0.01 [s] '} <<< TIME
 
 ITER STEP NUMBER     6
 Total charge density [el/Bohr^3]
)     Maximum=    2.8007E-01  at reduced coord.    0.0000    0.0000    0.0000
)     Minimum=    0.0000E+00  at reduced coord.    0.1000    0.5000    0.5000
   Integrated=    2.0000E+00
 ETOT  6  -1.1452910771800    -9.855E-09 1.404E-09 5.748E-06
 scprqt: <Vxc>= -7.5473798E-02 hartree
 
 At SCF step    6, etot is converged : 
  for the second time, diff in etot=  9.855E-09 < toldfe=  1.000E-06
 
 -------------------------------------------------------------------------------------------------
 Ekinetic   = :     1.046068E+00 Ha ,    2.846496E+01 eV
 Evext_l    = :    -2.240371E+00 Ha ,   -6.096359E+01 eV
 Evext_nl   = :    -1.704915E-01 Ha ,   -4.639310E+00 eV
 Epsp_core  = :     1.449405E-03 Ha ,    3.944031E-02 eV
 Ehartree   = :     7.423923E-01 Ha ,    2.020152E+01 eV
 Exc_ks     = :    -6.753899E-01 Ha ,   -1.837829E+01 eV
 Enn        = :     1.510511E-01 Ha ,    4.110310E+00 eV
 -------------------------------------------------------------------------------------------------
 Etot       = :    -1.145291E+00 Ha ,   -3.116496E+01 eV
 -------------------------------------------------------------------------------------------------
 
 Cartesian components of stress tensor (hartree/bohr^3)
  sigma(1 1)=  1.20590343E-05  sigma(3 2)=  0.00000000E+00
  sigma(2 2)=  3.52139696E-05  sigma(3 1)=  0.00000000E+00
  sigma(3 3)=  3.52139696E-05  sigma(2 1)=  0.00000000E+00
 
 
 fftdatar_write: About to write data to: tbase1_1o_DEN with iomode: IO_MODE_FORTRAN
 IO operation , wall:  0.01 [s] , cpu:  0.00 [s] <<< TIME
- Creating HDf5 file with MPI-IO support: tbase1_1o_GSR.nc
 Integrated electronic density in atomic spheres:
 ------------------------------------------------
 Atom  Sphere_radius  Integrated_density
    1        2.00000          1.46374007
    2        2.00000          1.46374007
================================================================================
 
 ----iterations are completed or convergence reached----
 
 
 === Gap info ===
  >>>> For spin  1
   Minimum direct gap =   9.6796 [eV], located at k-point      :   0.0000  0.0000  0.0000
   Fundamental gap    =   9.6796 [eV], Top of valence bands at :   0.0000  0.0000  0.0000
                                       Bottom of conduction at :   0.0000  0.0000  0.0000
 Mean square residual over all n,k,spin=   13.854E-10; max=  14.043E-10
   0.0000  0.0000  0.0000    1  1.40432E-09 kpt; spin; max resid(k); each band:
  1.37E-09 1.40E-09
 
   outwf: writing wavefunctions to: tbase1_1o_WFK with iomode: IO_MODE_FORTRAN_MASTER
 WFK output , wall:  0.01 [s] , cpu:  0.00 [s] <<< TIME
 prteigrs : about to open file tbase1_1o_EIG
 Fermi (or HOMO) energy (hartree) =  -0.37378   Average Vxc (hartree)=  -0.07547
 Eigenvalues (hartree) for nkpt=   1  k points:
 kpt#   1, nband=  2, wtk=  1.00000, kpt=  0.0000  0.0000  0.0000 (reduced coord)
  -0.37378   -0.01806
 Total charge density [el/Bohr^3]
)     Maximum=    2.8007E-01  at reduced coord.    0.0000    0.0000    0.0000
)Next maximum=    2.7048E-01  at reduced coord.    0.9667    0.0000    0.0000
)     Minimum=    0.0000E+00  at reduced coord.    0.1000    0.5000    0.5000
)Next minimum=    0.0000E+00  at reduced coord.    0.9000    0.5000    0.5000
   Integrated=    2.0000E+00
 
 Cartesian components of stress tensor (hartree/bohr^3)
  sigma(1 1)=  1.20590343E-05  sigma(3 2)=  0.00000000E+00
  sigma(2 2)=  3.52139696E-05  sigma(3 1)=  0.00000000E+00
  sigma(3 3)=  3.52139696E-05  sigma(2 1)=  0.00000000E+00
 
-Cartesian components of stress tensor (GPa)         [Pressure= -8.0895E-01 GPa]
- sigma(1 1)=  3.54788977E-01  sigma(3 2)=  0.00000000E+00
- sigma(2 2)=  1.03603058E+00  sigma(3 1)=  0.00000000E+00
- sigma(3 3)=  1.03603058E+00  sigma(2 1)=  0.00000000E+00
 dataset: 1 , wall:  0.83 [s] , cpu:  0.36 [s] <<< TIME
 
== END DATASET(S) ==============================================================
================================================================================
  
 -outvars: echo values of variables after computation  --------
 
 These variables are accessible in NetCDF format (tbase1_1o_OUT.nc)

            acell      1.0000000000E+01  1.0000000000E+01  1.0000000000E+01 Bohr
              amu      1.00794000E+00
           diemac      2.00000000E+00
             ecut      1.00000000E+01 Hartree
           etotal     -1.1452910772E+00
            fcart     -1.6863045142E-02  0.0000000000E+00  0.0000000000E+00
                       1.6863045142E-02  0.0000000000E+00  0.0000000000E+00
-          fftalg         512
           istwfk        2
              ixc          11
           kptopt           0
P           mkmem           1
            natom           2
            nband           2
            ngfft          30      30      30
             nkpt           1
            nstep          10
             nsym          16
           ntypat           1
              occ      2.000000  0.000000
          spgroup         123
           strten      1.2059034265E-05  3.5213969639E-05  3.5213969639E-05
                       0.0000000000E+00  0.0000000000E+00  0.0000000000E+00
           symrel      1  0  0   0  1  0   0  0  1      -1  0  0   0 -1  0   0  0 -1
                      -1  0  0   0  1  0   0  0 -1       1  0  0   0 -1  0   0  0  1
                      -1  0  0   0 -1  0   0  0  1       1  0  0   0  1  0   0  0 -1
                       1  0  0   0 -1  0   0  0 -1      -1  0  0   0  1  0   0  0  1
                       1  0  0   0  0  1   0  1  0      -1  0  0   0  0 -1   0 -1  0
                      -1  0  0   0  0  1   0 -1  0       1  0  0   0  0 -1   0  1  0
                      -1  0  0   0  0 -1   0  1  0       1  0  0   0  0  1   0 -1  0
                       1  0  0   0  0 -1   0 -1  0      -1  0  0   0  0  1   0  1  0
           toldfe      1.00000000E-06 Hartree
            typat      1  1
           xangst     -3.7042404601E-01  0.0000000000E+00  0.0000000000E+00
                       3.7042404601E-01  0.0000000000E+00  0.0000000000E+00
            xcart     -7.0000000000E-01  0.0000000000E+00  0.0000000000E+00
                       7.0000000000E-01  0.0000000000E+00  0.0000000000E+00
             xred     -7.0000000000E-02  0.0000000000E+00  0.0000000000E+00
                       7.0000000000E-02  0.0000000000E+00  0.0000000000E+00
            znucl        1.00000
 
================================================================================
  
 Proc.   0 individual time (sec): cpu=          0.5  wall=          1.1
 
 Calculation completed.
.Delivered   1 WARNINGs and   3 COMMENTs to log file.

--- !FinalSummary
program: abinit
version: 9.10.3
start_datetime: Wed Apr 23 05:53:34 2025
end_datetime: Wed Apr 23 05:53:35 2025
overall_cpu_time:           0.5
overall_wall_time:           1.1
exit_requested_by_user: no 
timelimit: 0
pseudos: 
    H   : 20698c48a21fe3532638b4d685fd1c8b
usepaw: 0
mpi_procs: 1
omp_threads: 1
num_warnings: 1
num_comments: 3
...
