  ABINIT 9.10.3
  
-instrng: 54 lines of input have been read from file mos2.abi
 
 
--- !COMMENT
src_file: m_dtfil.F90
src_line: 1441
message: |
    Output file: mos2.abo already exists.
...
 
 
--- !COMMENT
src_file: m_dtfil.F90
src_line: 1465
message: |
    Renaming old: mos2.abo to: mos2.abo0004
...
 

.Version 9.10.3 of ABINIT 
.(MPI version, prepared for a x86_64_linux_intel2021.6 computer) 

.Copyright (C) 1998-2022 ABINIT group . 
 ABINIT comes with ABSOLUTELY NO WARRANTY.
 It is free software, and you are welcome to redistribute it
 under certain conditions (GNU General Public License,
 see ~abinit/COPYING or http://www.gnu.org/copyleft/gpl.txt).

 ABINIT is a project of the Universite Catholique de Louvain,
 Corning Inc. and other collaborators, see ~abinit/doc/developers/contributors.txt .
 Please read https://docs.abinit.org/theory/acknowledgments for suggested
 acknowledgments of the ABINIT effort.
 For more information, see https://www.abinit.org .

.Starting date : Wed  7 May 2025.
- ( at 08h21 )
  
 
 ++++++++++++++++++++++++++++++++++++++++++++++++++++++++++++++++++++++++++++++
 
 === Build Information === 
  Version       : 9.10.3
  Build target  : x86_64_linux_intel2021.6
  Build date    : 20240126
 
 === Compiler Suite === 
  C compiler       : intel2021.6
  C++ compiler     : gnu2021.6
  Fortran compiler : intel2021.6
  CFLAGS           : -g -O2
  CXXFLAGS         : -g -O2 -mtune=native -march=native
  FCFLAGS          : -g -extend-source -nofpscomp     -I/shared/ucl/apps/NetCDF/4.9.2-in ...
  FC_LDFLAGS       :   -static-intel -static-libgcc
 
 === Optimizations === 
  Debug level        : basic
  Optimization level : standard
  Architecture       : intel_xeon
 
 === Multicore === 
  Parallel build : /shared/ucl/apps/intel/2020/impi/2019.6.166/intel64
  Parallel I/O   : 
  openMP support : 
  GPU support    : 
 
 === Connectors / Fallbacks === 
  LINALG flavor  : mkl
  FFT flavor     : dfti
  HDF5           : yes
  NetCDF         : yes
  NetCDF Fortran : yes
  LibXC          : yes
  Wannier90      : no
 
 === Experimental features === 
  Exports             : 
  GW double-precision : 
 
 ++++++++++++++++++++++++++++++++++++++++++++++++++++++++++++++++++++++++++++++
 

 ++++++++++++++++++++++++++++++++++++++++++++++++++++++++++++++++++++++++++++++
 Default optimizations:
   -O3


 Optimizations for 43_ptgroups:
   -O0


 ++++++++++++++++++++++++++++++++++++++++++++++++++++++++++++++++++++++++++++++


 ++++++++++++++++++++++++++++++++++++++++++++++++++++++++++++++++++++++++++++++
 CPP options activated during the build:

                  CC_INTEL                   CXX_GNU                  FC_INTEL
 
                 HAVE_DFTI HAVE_FC_ALLOCATABLE_DT...             HAVE_FC_ASYNC
 
  HAVE_FC_COMMAND_ARGUMENT      HAVE_FC_COMMAND_LINE        HAVE_FC_CONTIGUOUS
 
           HAVE_FC_CPUTIME              HAVE_FC_EXIT             HAVE_FC_FLUSH
 
             HAVE_FC_GAMMA   HAVE_FC_IEEE_ARITHMETIC   HAVE_FC_IEEE_EXCEPTIONS
 
             HAVE_FC_IOMSG     HAVE_FC_ISO_C_BINDING  HAVE_FC_ISO_FORTRAN_2008
 
        HAVE_FC_LONG_LINES        HAVE_FC_MOVE_ALLOC  HAVE_FC_ON_THE_FLY_SHAPE
 
           HAVE_FC_PRIVATE         HAVE_FC_PROTECTED           HAVE_FC_SHIFTLR
 
         HAVE_FC_STREAM_IO                 HAVE_HDF5             HAVE_HDF5_MPI
 
        HAVE_LIBPAW_ABINIT      HAVE_LIBTETRA_ABINIT                HAVE_LIBXC
 
         HAVE_LINALG_AXPBY        HAVE_LINALG_GEMM3M         HAVE_LINALG_GEMMT
 
  HAVE_LINALG_MKL_IMATCOPY   HAVE_LINALG_MKL_OMATADD  HAVE_LINALG_MKL_OMATCOPY
 
   HAVE_LINALG_MKL_THREADS     HAVE_LINALG_SCALAPACK                  HAVE_MPI
 
                 HAVE_MPI2       HAVE_MPI_IALLGATHER       HAVE_MPI_IALLREDUCE
 
        HAVE_MPI_IALLTOALL       HAVE_MPI_IALLTOALLV           HAVE_MPI_IBCAST
 
         HAVE_MPI_IGATHERV        HAVE_MPI_INTEGER16               HAVE_MPI_IO
 
 HAVE_MPI_TYPE_CREATE_S...               HAVE_NETCDF       HAVE_NETCDF_FORTRAN
 
   HAVE_NETCDF_FORTRAN_MPI           HAVE_NETCDF_MPI             HAVE_OS_LINUX
 
         HAVE_TIMER_ABINIT                                                      
 ++++++++++++++++++++++++++++++++++++++++++++++++++++++++++++++++++++++++++++++

- input  file    -> mos2.abi
- output file    -> mos2.abo
- root for input  files -> mos2i
- root for output files -> mos2o
 
 Netcdf library supports MPI-IO
-instrng: 54 lines of input have been read from file mos2.abi
 
 For atom type 1, psp file is ./persudo/Mo.psp8
 For atom type 2, psp file is ./persudo/S.psp8
  read the values zionpsp= 14.0 , pspcod=   8 , lmax=   2
  read the values zionpsp=  6.0 , pspcod=   8 , lmax=   2
 
 inpspheads: deduce mpsang = 3, n1xccc = 2501.

======================================================= 
 invars1m : enter jdtset= 1
 
 symlatt: the Bravais lattice is hP (primitive hexagonal)
  xred   is defined in input file
 ingeo: takes atomic coordinates from input array xred
 
 symlatt: the Bravais lattice is hP (primitive hexagonal)
 
 symlatt: the Bravais lattice is hP (primitive hexagonal)
 
--- !COMMENT
src_file: m_symfind.F90
src_line: 995
message: |
    The Bravais lattice determined only from the primitive
    vectors, bravais(1)=  6, is more symmetric
    than the real one, iholohedry=  1, obtained by taking into
    account the atomic positions. Start deforming the primitive vector set.
...
 
 
 symlatt: the Bravais lattice is oC (one-face-centered orthorhombic)
 
--- !COMMENT
src_file: m_symfind.F90
src_line: 1004
message: |
    The Bravais lattice determined from modified primitive
    vectors, bravais(1)=  3, has a lower symmetry than before,
    but is still more symmetric than the real one, iholohedry=  1
    obtained by taking into account the atomic positions.
...
 
 
 symlatt: the Bravais lattice is aP (primitive triclinic)
 symspgr: spgroup=   1  P1   (=C1^1)

======================================================= 
 invars1m : enter jdtset= 2
 
 symlatt: the Bravais lattice is hP (primitive hexagonal)
  xred   is defined in input file
 ingeo: takes atomic coordinates from input array xred
 
 symlatt: the Bravais lattice is hP (primitive hexagonal)
 
 symlatt: the Bravais lattice is hP (primitive hexagonal)
 
--- !COMMENT
src_file: m_symfind.F90
src_line: 995
message: |
    The Bravais lattice determined only from the primitive
    vectors, bravais(1)=  6, is more symmetric
    than the real one, iholohedry=  1, obtained by taking into
    account the atomic positions. Start deforming the primitive vector set.
...
 
 
 symlatt: the Bravais lattice is oC (one-face-centered orthorhombic)
 
--- !COMMENT
src_file: m_symfind.F90
src_line: 1004
message: |
    The Bravais lattice determined from modified primitive
    vectors, bravais(1)=  3, has a lower symmetry than before,
    but is still more symmetric than the real one, iholohedry=  1
    obtained by taking into account the atomic positions.
...
 
 
 symlatt: the Bravais lattice is aP (primitive triclinic)
 symspgr: spgroup=   1  P1   (=C1^1)
 Real(R)+Recip(G) space primitive vectors, cartesian coordinates (Bohr,Bohr^-1):
 R(1)=  2.9763187 -5.1551351  0.0000000  G(1)=  0.1679928 -0.0969907  0.0000000
 R(2)=  2.9763187  5.1551351  0.0000000  G(2)=  0.1679928  0.0969907  0.0000000
 R(3)=  0.0000000  0.0000000 37.7945227  G(3)=  0.0000000  0.0000000  0.0264589
 Unit cell volume ucvol=  1.1597873E+03 bohr^3
 Unit cell volume ucvol=  1.1597873E+03 bohr^3
 Angles (23,13,12)=  9.00000000E+01  9.00000000E+01  1.20000000E+02 degrees
 Angles (23,13,12)=  9.00000000E+01  9.00000000E+01  1.20000000E+02 degrees
  9.699066788217228E-002  5.599758821079725E-002  0.225547665608976     
 
 mknormpath : total number of points on the path:       68
 
 Number of divisions for each segment of the normalized path:
 0.00000 0.00000 0.00000 ==>  0.50000 0.00000 0.00000 ( ndiv:    17 )
 0.50000 0.00000 0.00000 ==>  0.33333 0.33333 0.00000 ( ndiv:    10 )
 0.33333 0.33333 0.00000 ==>  1.00000 1.00000 1.00000 ( ndiv:    40 )
 
 
 invars2: take the default value of fband=  1.25000000E-01
 
--- !WARNING
src_file: m_invars2.F90
src_line: 2098
message: |
    nbdbuf is not specified in input, using `nbdbuf = 2*nspinor` that may be too small!
    As a consequence, the NSCF cycle may have problems to converge the last bands within nstep iterations.
    To avoid this problem specify nbdbuf in the input file and adjust nband accordingly.
...
 
 Real(R)+Recip(G) space primitive vectors, cartesian coordinates (Bohr,Bohr^-1):
 R(1)=  2.9763187 -5.1551351  0.0000000  G(1)=  0.1679928 -0.0969907  0.0000000
 R(2)=  2.9763187  5.1551351  0.0000000  G(2)=  0.1679928  0.0969907  0.0000000
 R(3)=  0.0000000  0.0000000 37.7945227  G(3)=  0.0000000  0.0000000  0.0264589
 Unit cell volume ucvol=  1.1597873E+03 bohr^3
 Unit cell volume ucvol=  1.1597873E+03 bohr^3
 Angles (23,13,12)=  9.00000000E+01  9.00000000E+01  1.20000000E+02 degrees
 Angles (23,13,12)=  9.00000000E+01  9.00000000E+01  1.20000000E+02 degrees
  9.699066788217228E-002  5.599758821079725E-002  0.225547665608976     
 
 mknormpath : total number of points on the path:       68
 
 Number of divisions for each segment of the normalized path:
 0.00000 0.00000 0.00000 ==>  0.50000 0.00000 0.00000 ( ndiv:    17 )
 0.50000 0.00000 0.00000 ==>  0.33333 0.33333 0.00000 ( ndiv:    10 )
 0.33333 0.33333 0.00000 ==>  1.00000 1.00000 1.00000 ( ndiv:    40 )
 
 
 LMac pawujat is:            0
 LMac pawujat is:            0
 For input ecut=  2.000000E+01 best grid ngfft=      24      24     160
       max ecut=  2.005457E+01
 
 ==== FFT mesh ====
  FFT mesh divisions ........................    24   24  160
  Augmented FFT divisions ...................    25   25  160
  FFT algorithm .............................   512
  FFT cache size ............................    16
 getmpw: optimal value of mpw= 4986
 For input ecut=  2.000000E+01 best grid ngfft=      24      24     160
       max ecut=  2.005457E+01
 
 ==== FFT mesh ====
  FFT mesh divisions ........................    24   24  160
  Augmented FFT divisions ...................    25   25  160
  FFT algorithm .............................   512
  FFT cache size ............................    16
 getmpw: optimal value of mpw= 5028
 
 DATASET    1 : space group P1 (#  1); Bravais aP (primitive triclinic)
 
 getdim_nloc: deduce lmnmax  =  18, lnmax  =   6,
                      lmnmaxso=  18, lnmaxso=   6.
memory: analysis of memory needs
================================================================================
 Values of the parameters that define the memory need for DATASET  1.
     intxc =       0    ionmov =       0      iscf =       7    lmnmax =       6
     lnmax =       6     mgfft =     160  mpssoang =       3    mqgrid =    7609
     natom =       3  nloc_mem =       1    nspden =       1   nspinor =       1
    nsppol =       1      nsym =       1    n1xccc =    2501    ntypat =       2
    occopt =       1   xclevel =       2
-    mband =          14        mffmem =           1         mkmem =          10
       mpw =        4986          nfft =       92160          nkpt =          10
================================================================================
P This job should need less than                      41.231 Mbytes of memory.
  Rough estimation (10% accuracy) of disk space for files :
_ WF disk file :     10.653 Mbytes ; DEN or POT disk file :      0.705 Mbytes.
================================================================================
 
 Biggest array : f_fftgr(disk), with     11.2520 MBytes.
 memana : allocated an array of     11.252 Mbytes, for testing purposes.
 memana: allocated      41.231Mbytes, for testing purposes. 
 The job will continue.
 
 DATASET    2 : space group P1 (#  1); Bravais aP (primitive triclinic)
 
 getdim_nloc: deduce lmnmax  =  18, lnmax  =   6,
                      lmnmaxso=  18, lnmaxso=   6.
memory: analysis of memory needs
================================================================================
 Values of the parameters that define the memory need for DATASET  2.
     intxc =       0    ionmov =       0      iscf =      -2    lmnmax =       6
     lnmax =       6     mgfft =     160  mpssoang =       3    mqgrid =    7609
     natom =       3  nloc_mem =       1    nspden =       1   nspinor =       1
    nsppol =       1      nsym =       1    n1xccc =    2501    ntypat =       2
    occopt =       1   xclevel =       2
-    mband =           8        mffmem =           1         mkmem =          68
       mpw =        5028          nfft =       92160          nkpt =          68
================================================================================
P This job should need less than                      64.487 Mbytes of memory.
  Rough estimation (10% accuracy) of disk space for files :
_ WF disk file :     41.738 Mbytes ; DEN or POT disk file :      0.705 Mbytes.
================================================================================
 
 Biggest array : cg(disk), with     41.7383 MBytes.
 memana : allocated an array of     41.738 Mbytes, for testing purposes.
 memana: allocated      64.487Mbytes, for testing purposes. 
 The job will continue.
--------------------------------------------------------------------------------
------------- Echo of variables that govern the present computation ------------
--------------------------------------------------------------------------------
-
- outvars: echo of selected default values                                      
-   iomode0 =  0 , fftalg0 =512 , wfoptalg0 =  0
-
- outvars: echo of global parameters not present in the input file              
-  max_nthreads =    0
-
 -outvars: echo values of preprocessed input variables --------
 
 These variables are accessible in NetCDF format (mos2o_OUT.nc)

            acell      5.9526373186E+00  5.9526373186E+00  3.7794522658E+01 Bohr
              amu      9.59400000E+01  3.20660000E+01
      chksymbreak           0
             ecut      2.00000000E+01 Hartree
           enunit1          0
           enunit2          1
-          fftalg         512
           getden1          0
           getden2         -1
             iscf1          7
             iscf2         -2
           istwfk1       4    0    5    0    0    0    0    8    0    9
           istwfk2       2    0    0    0    0    0    0    0    0    0
                         0    0    0    0    0    0    0    3    0    0
                         0    0    0    0    0    0    0    0    0    0
                         0    0    0    0    0    0    0    0    0    0
                         0    0    0    0    0    0    0    0    0    0
                       outvar_i_n : Printing only first  50 k-points.
              ixc          11
           jdtset        1    2
              kpt1     0.00000000E+00  0.00000000E+00  5.00000000E-01
                       2.50000000E-01  0.00000000E+00  5.00000000E-01
                       5.00000000E-01  0.00000000E+00  5.00000000E-01
                       0.00000000E+00  2.50000000E-01  5.00000000E-01
                       2.50000000E-01  2.50000000E-01  5.00000000E-01
                       5.00000000E-01  2.50000000E-01  5.00000000E-01
                      -2.50000000E-01  2.50000000E-01  5.00000000E-01
                       0.00000000E+00  5.00000000E-01  5.00000000E-01
                       2.50000000E-01  5.00000000E-01  5.00000000E-01
                       5.00000000E-01  5.00000000E-01  5.00000000E-01
              kpt2     0.00000000E+00  0.00000000E+00  0.00000000E+00
                       2.94117647E-02  0.00000000E+00  0.00000000E+00
                       5.88235294E-02  0.00000000E+00  0.00000000E+00
                       8.82352941E-02  0.00000000E+00  0.00000000E+00
                       1.17647059E-01  0.00000000E+00  0.00000000E+00
                       1.47058824E-01  0.00000000E+00  0.00000000E+00
                       1.76470588E-01  0.00000000E+00  0.00000000E+00
                       2.05882353E-01  0.00000000E+00  0.00000000E+00
                       2.35294118E-01  0.00000000E+00  0.00000000E+00
                       2.64705882E-01  0.00000000E+00  0.00000000E+00
                       2.94117647E-01  0.00000000E+00  0.00000000E+00
                       3.23529412E-01  0.00000000E+00  0.00000000E+00
                       3.52941176E-01  0.00000000E+00  0.00000000E+00
                       3.82352941E-01  0.00000000E+00  0.00000000E+00
                       4.11764706E-01  0.00000000E+00  0.00000000E+00
                       4.41176471E-01  0.00000000E+00  0.00000000E+00
                       4.70588235E-01  0.00000000E+00  0.00000000E+00
                       5.00000000E-01  0.00000000E+00  0.00000000E+00
                       4.83333333E-01  3.33333333E-02  0.00000000E+00
                       4.66666667E-01  6.66666667E-02  0.00000000E+00
                       4.50000000E-01  1.00000000E-01  0.00000000E+00
                       4.33333333E-01  1.33333333E-01  0.00000000E+00
                       4.16666667E-01  1.66666667E-01  0.00000000E+00
                       4.00000000E-01  2.00000000E-01  0.00000000E+00
                       3.83333333E-01  2.33333333E-01  0.00000000E+00
                       3.66666667E-01  2.66666667E-01  0.00000000E+00
                       3.50000000E-01  3.00000000E-01  0.00000000E+00
                       3.33333333E-01  3.33333333E-01  0.00000000E+00
                       3.50000000E-01  3.50000000E-01  2.50000000E-02
                       3.66666667E-01  3.66666667E-01  5.00000000E-02
                       3.83333333E-01  3.83333333E-01  7.50000000E-02
                       4.00000000E-01  4.00000000E-01  1.00000000E-01
                       4.16666667E-01  4.16666667E-01  1.25000000E-01
                       4.33333333E-01  4.33333333E-01  1.50000000E-01
                       4.50000000E-01  4.50000000E-01  1.75000000E-01
                       4.66666667E-01  4.66666667E-01  2.00000000E-01
                       4.83333333E-01  4.83333333E-01  2.25000000E-01
                       5.00000000E-01  5.00000000E-01  2.50000000E-01
                       5.16666667E-01  5.16666667E-01  2.75000000E-01
                       5.33333333E-01  5.33333333E-01  3.00000000E-01
                       5.50000000E-01  5.50000000E-01  3.25000000E-01
                       5.66666667E-01  5.66666667E-01  3.50000000E-01
                       5.83333333E-01  5.83333333E-01  3.75000000E-01
                       6.00000000E-01  6.00000000E-01  4.00000000E-01
                       6.16666667E-01  6.16666667E-01  4.25000000E-01
                       6.33333333E-01  6.33333333E-01  4.50000000E-01
                       6.50000000E-01  6.50000000E-01  4.75000000E-01
                       6.66666667E-01  6.66666667E-01  5.00000000E-01
                       6.83333333E-01  6.83333333E-01  5.25000000E-01
                       7.00000000E-01  7.00000000E-01  5.50000000E-01
                       outvar_i_n : Printing only first  50 k-points.
           kptopt1          1
           kptopt2         -3
         kptrlatt        4    0    0      0    4    0      0    0    1
          kptrlen1     2.38105493E+01
          kptrlen2     3.00000000E+01
P           mkmem1         10
P           mkmem2         68
            natom           3
            nband1         14
            nband2          8
           nbdbuf1          0
           nbdbuf2          2
           ndtset           2
           ndivsm1          0
           ndivsm2         10
            ngfft          24      24     160
             nkpt1         10
             nkpt2         68
            nstep          10
             nsym           1
           ntypat           2
              occ      2.000000  2.000000  2.000000  2.000000  2.000000  2.000000
                       2.000000  2.000000  2.000000  2.000000  2.000000  2.000000
                       2.000000  0.000000
            rprim      5.0000000000E-01 -8.6602540378E-01  0.0000000000E+00
                       5.0000000000E-01  8.6602540378E-01  0.0000000000E+00
                       0.0000000000E+00  0.0000000000E+00  1.0000000000E+00
           shiftk1     0.00000000E+00  0.00000000E+00  5.00000000E-01
           shiftk2     5.00000000E-01  5.00000000E-01  5.00000000E-01
          spgroup           1
           toldfe1     1.00000000E-08 Hartree
           toldfe2     0.00000000E+00 Hartree
           tolwfr1     0.00000000E+00
           tolwfr2     1.00000000E-12
            typat      1  2  2
              wtk1       0.06250    0.12500    0.06250    0.12500    0.12500    0.12500
                         0.12500    0.06250    0.12500    0.06250
              wtk2       1.00000    1.00000    1.00000    1.00000    1.00000    1.00000
                         1.00000    1.00000    1.00000    1.00000    1.00000    1.00000
                         1.00000    1.00000    1.00000    1.00000    1.00000    1.00000
                         1.00000    1.00000    1.00000    1.00000    1.00000    1.00000
                         1.00000    1.00000    1.00000    1.00000    1.00000    1.00000
                         1.00000    1.00000    1.00000    1.00000    1.00000    1.00000
                         1.00000    1.00000    1.00000    1.00000    1.00000    1.00000
                         1.00000    1.00000    1.00000    1.00000    1.00000    1.00000
                         1.00000    1.00000
                       outvars : Printing only first  50 k-points.
           xangst      1.5750000000E+00  9.0932667397E-01  0.0000000000E+00
                       1.5750000000E+00 -9.0932667397E-01 -1.8388847000E+00
                       1.5750000000E+00 -9.0932667397E-01  1.8388847000E+00
            xcart      2.9763186593E+00  1.7183783791E+00  0.0000000000E+00
                       2.9763186593E+00 -1.7183783791E+00 -3.4749884730E+00
                       2.9763186593E+00 -1.7183783791E+00  3.4749884730E+00
             xred      3.3333333333E-01  6.6666666667E-01  0.0000000000E+00
                       6.6666666667E-01  3.3333333333E-01 -9.1944235000E-02
                       6.6666666667E-01  3.3333333333E-01  9.1944235000E-02
            znucl       42.00000   16.00000
 
================================================================================
 
 chkinp: Checking input parameters for consistency, jdtset=   1.
 
 chkinp: Checking input parameters for consistency, jdtset=   2.
 DATA TYPE INFORMATION: 
 REAL:      Data type name: REAL(DP) 
            Kind value:      8
            Precision:      15
            Smallest nonnegligible quantity relative to 1: 0.22204460E-015
            Smallest positive number:                      0.22250739E-307
            Largest representable number:                  0.17976931E+309
 INTEGER:   Data type name: INTEGER(default) 
            Kind value: 4
            Bit size:   32
            Largest representable number: 2147483647
 LOGICAL:   Data type name: LOGICAL 
            Kind value: 4
 CHARACTER: Data type name: CHARACTER             Kind value: 1

  ==== OpenMP parallelism is OFF ====
 
  ==== Using MPI-2 specifications ==== 
  MPI-IO support is ON
  xmpi_tag_ub ................   1073741823
  xmpi_bsize_ch ..............            1
  xmpi_bsize_int .............            4
  xmpi_bsize_sp ..............            4
  xmpi_bsize_dp ..............            8
  xmpi_bsize_spc .............            8
  xmpi_bsize_dpc .............           16
  xmpio_bsize_frm ............            4
  xmpi_address_kind ..........            8
  xmpi_offset_kind ...........            8
  MPI_WTICK ..................   4.009461874441894E-010
 
================================================================================
== DATASET  1 ==================================================================
-   mpi_nproc: 1, omp_nthreads: -1 (-1 if OMP is not activated)
 
 
--- !COMMENT
src_file: m_xgScalapack.F90
src_line: 235
message: |
    xgScalapack in auto mode
...
 
 
 getdim_nloc: deduce lmnmax  =  18, lnmax  =   6,
                      lmnmaxso=  18, lnmaxso=   6.
 Exchange-correlation functional for the present dataset will be:
  GGA: Perdew-Burke-Ernzerhof functional - ixc=11
 Citation for XC functional:
  J.P.Perdew, K.Burke, M.Ernzerhof, PRL 77, 3865 (1996)
 
 Unit cell volume ucvol=  1.1597873E+03 bohr^3
 Angles (23,13,12)=  9.00000000E+01  9.00000000E+01  1.20000000E+02 degrees
 
 getcut: wavevector=  0.0000  0.0000  0.0000  ngfft=  24  24 160
         ecut(hartree)=     20.000   => boxcut(ratio)=   2.00273
- pspini: atom type   1  psp file is ./persudo/Mo.psp8
- pspatm: opening atomic psp file    ./persudo/Mo.psp8
- Mo    ONCVPSP-3.2.3.1  r_core=   1.45541   1.45541   1.35488
- 42.00000  14.00000    170510                znucl, zion, pspdat
    8   11    2    4       600   0.00000      pspcod,pspxc,lmax,lloc,mmax,r2well
    5.99000000000000    3.00000000000000    0.00000000000000   rchrg,fchrg,qchrg
     nproj     2     2     2
     extension_switch     1
  valence charge (before rescaling) integrates to:    13.9106199290666     
  pspatm : epsatm=   15.95693586
         --- l  ekb(1:nproj) -->
             0   13.833287    1.350687
             1    8.015347    1.134034
             2    2.765699    0.969071
 pspatm: atomic psp has been read  and splines computed
 
- pspini: atom type   2  psp file is ./persudo/S.psp8
- pspatm: opening atomic psp file    ./persudo/S.psp8
- S     ONCVPSP-4.0.1  r_core=   1.45687   1.45687   1.45687
- 16.00000   6.00000    220131                znucl, zion, pspdat
    8   11    2    4       600   0.00000      pspcod,pspxc,lmax,lloc,mmax,r2well
    5.99000000000000    6.00000000000000    0.00000000000000   rchrg,fchrg,qchrg
     nproj     2     2     2
     extension_switch     1
  valence charge (before rescaling) integrates to:    5.98952054080779     
  pspatm : epsatm=    9.04179351
         --- l  ekb(1:nproj) -->
             0    6.774234    0.542270
             1    3.022426    0.737017
             2   -5.033160   -1.531047
 pspatm: atomic psp has been read  and splines computed
 
   8.85053595E+02                                ecore*ucvol(ha*bohr**3)
 ==== Info on pseudopotentials ====
  Norm-conserving pseudopotentials
  Number of pseudopotentials ..    2
  Number of types of atoms   ..    2
  Scalar calculation (no spin-orbit term)
  Nonlocal part applied using Legendre polynomials
  Max number of non-local projectors over l and type   2
  Highest angular momentum +1 .......   3
  Max number of (l,n)   components ..   6
  Max number of (l,m,n) components ..   6
 
 Pseudo-Core Charge Info: 
   Number of radial points for pseudo-core charge .. 2501
   XC core-correction treatment (optnlxccc) ........    1
   Radius for pseudo-core charge for each type ..... 
 
  - Atom type    1 has pseudo-core radius ..  5.9900
  - Atom type    2 has pseudo-core radius ..  5.9900
 
 Info on the Q-grid used for form factors in spline form: 
   Number of q-points for radial functions ffspl ..   7609
   Number of q-points for vlspl ...................   7609
   vloc is computed in Reciprocal Space
   model core charge treated in real-space
 
  XC functional for type 1 is 11
  Pseudo valence available: yes
  XC functional for type 2 is 11
  Pseudo valence available: yes
 
 wfconv:    14 bands initialized randomly with npw=  2432, for ikpt=     1
 wfconv:    14 bands initialized randomly with npw=  4944, for ikpt=     2
 wfconv:    14 bands initialized randomly with npw=  2480, for ikpt=     3
 wfconv:    14 bands initialized randomly with npw=  4944, for ikpt=     4
 wfconv:    14 bands initialized randomly with npw=  4986, for ikpt=     5
 wfconv:    14 bands initialized randomly with npw=  4986, for ikpt=     6
 wfconv:    14 bands initialized randomly with npw=  4944, for ikpt=     7
 wfconv:    14 bands initialized randomly with npw=  2480, for ikpt=     8
 wfconv:    14 bands initialized randomly with npw=  4986, for ikpt=     9
 wfconv:    14 bands initialized randomly with npw=  2480, for ikpt=    10
_setup2: Arith. and geom. avg. npw (full set) are    4957.750    4957.657
 initro: for itypat=  1, take pseudo charge density from pp file
 initro: for itypat=  2, take pseudo charge density from pp file
 
================================================================================
 
 getcut: wavevector=  0.0000  0.0000  0.0000  ngfft=  24  24 160
         ecut(hartree)=     20.000   => boxcut(ratio)=   2.00273
 
 1/G**2 cut-off applied in the following step : cutoff-mode = CRYSTAL
 
 1/G**2 cut-off applied in the following step : cutoff-mode = CRYSTAL
 
 1/G**2 cut-off applied in the following step : cutoff-mode = CRYSTAL
 
--- !WARNING
src_file: m_drivexc.F90
src_line: 783
message: |
    Density went too small (lower than xc_denpos) at 15158 points
    and was set to xc_denpos =   1.00E-14. Lowest was  -0.28E-05.
    This might be due to (1) too low boxcut or (2) too low ecut for
     pseudopotential core charge, or (3) too low ecut for estimated initial density.
     Possible workarounds : increase ecut, or define the input variable densty,
     with a value larger than the guess for the decay length, or initialize your,
     density with a preliminary LDA or GGA-PBE if you are using a more exotic xc functional.
...
 
 
 ITER STEP NUMBER     1
 Max number of non-self-consistent loops: 2
 Total charge density [el/Bohr^3]
)     Maximum=    8.2205E-01  at reduced coord.    0.4167    0.5833    0.0000
)     Minimum=    4.9668E-05  at reduced coord.    0.6250    0.9583    0.3375
   Integrated=    2.6000E+01
 
 1/G**2 cut-off applied in the following step : cutoff-mode = CRYSTAL
 ETOT  1  -91.422457479589    -9.142E+01 6.104E-02 5.364E+03
 scprqt: <Vxc>= -1.8025450E-01 hartree
 
 Simple mixing update:
  residual square of the potential:    343.479999493319
{SCF_istep: 1 , Vnl|psi>: 1400 , wall_time: '  3.83 [s] '} <<< TIME
 
 ITER STEP NUMBER     2
 Max number of non-self-consistent loops: 2
 Total charge density [el/Bohr^3]
)     Maximum=    1.1923E+00  at reduced coord.    0.2500    0.7500    0.0000
)     Minimum=    7.4941E-07  at reduced coord.    0.7083    0.9167    0.3813
   Integrated=    2.6000E+01
 ETOT  2  -86.306185714695     5.116E+00 5.179E-02 5.069E+04
 scprqt: <Vxc>= -1.4760868E-01 hartree
 
 Pulay update with  1 previous iterations:
 mixing of old trial potential: alpha(m:m-4)=  0.254      0.746
{SCF_istep: 2 , Vnl|psi>: 1394 , wall_time: '  1.57 [s] '} <<< TIME
 
 ITER STEP NUMBER     3
 Total charge density [el/Bohr^3]
)     Maximum=    9.2233E-01  at reduced coord.    0.2500    0.7500    0.0000
)     Minimum=    2.8019E-07  at reduced coord.    0.1250    0.0833    0.4500
   Integrated=    2.6000E+01
 ETOT  3  -92.163752717545    -5.858E+00 4.380E-02 1.026E+03
 scprqt: <Vxc>= -1.5411901E-01 hartree
 
 Pulay update with  2 previous iterations:
 mixing of old trial potential: alpha(m:m-4)=  0.339      0.143      0.518
{SCF_istep: 3 , Vnl|psi>: 670 , wall_time: '  0.79 [s] '} <<< TIME
 
 ITER STEP NUMBER     4
 Total charge density [el/Bohr^3]
)     Maximum=    9.0870E-01  at reduced coord.    0.2500    0.5000    0.0000
)     Minimum=    6.0804E-08  at reduced coord.    0.1250    0.3333    0.5000
   Integrated=    2.6000E+01
 ETOT  4  -92.241563572932    -7.781E-02 8.720E-03 4.686E+02
 scprqt: <Vxc>= -1.5187272E-01 hartree
 
 Pulay update with  3 previous iterations:
 mixing of old trial potential: alpha(m:m-4)=  0.375      0.149      0.947E-01  0.382
{SCF_istep: 4 , Vnl|psi>: 699 , wall_time: '  0.82 [s] '} <<< TIME
 
 ITER STEP NUMBER     5
 Total charge density [el/Bohr^3]
)     Maximum=    9.0054E-01  at reduced coord.    0.2500    0.7500    0.0000
)     Minimum=    3.2132E-08  at reduced coord.    0.1250    0.3333    0.5000
   Integrated=    2.6000E+01
 ETOT  5  -92.258255115448    -1.669E-02 1.588E-03 2.539E+02
 scprqt: <Vxc>= -1.5158125E-01 hartree
 
 Pulay update with  4 previous iterations:
 mixing of old trial potential: alpha(m:m-4)=  0.492      0.112      0.421E-01  0.699E-01  0.284
{SCF_istep: 5 , Vnl|psi>: 694 , wall_time: '  0.82 [s] '} <<< TIME
 
 ITER STEP NUMBER     6
 Total charge density [el/Bohr^3]
)     Maximum=    9.0088E-01  at reduced coord.    0.5000    0.7500    0.0000
)     Minimum=    3.0648E-08  at reduced coord.    0.2083    0.3333    0.5000
   Integrated=    2.6000E+01
 ETOT  6  -92.261142781188    -2.888E-03 8.962E-04 2.002E+02
 scprqt: <Vxc>= -1.5160684E-01 hartree
 
 Pulay update with  5 previous iterations:
 mixing of old trial potential: alpha(m:m-4)=  0.738      0.726E-01 -0.317E-01 -0.280E-01  0.484E-01
{SCF_istep: 6 , Vnl|psi>: 700 , wall_time: '  0.82 [s] '} <<< TIME
 
 ITER STEP NUMBER     7
 Total charge density [el/Bohr^3]
)     Maximum=    9.0008E-01  at reduced coord.    0.2500    0.7500    0.0000
)     Minimum=    3.0470E-08  at reduced coord.    0.6667    0.8750    0.5000
   Integrated=    2.6000E+01
 ETOT  7  -92.263838498078    -2.696E-03 3.875E-04 1.498E+02
 scprqt: <Vxc>= -1.5167942E-01 hartree
 
 Pulay update with  6 previous iterations:
 mixing of old trial potential: alpha(m:m-4)=  0.955      0.398     -0.229     -0.128     -0.101
{SCF_istep: 7 , Vnl|psi>: 700 , wall_time: '  0.82 [s] '} <<< TIME
 
 ITER STEP NUMBER     8
 Total charge density [el/Bohr^3]
)     Maximum=    8.9912E-01  at reduced coord.    0.2500    0.7500    0.0000
)     Minimum=    3.0465E-08  at reduced coord.    0.1250    0.7917    0.5000
   Integrated=    2.6000E+01
 ETOT  8  -92.266900865510    -3.062E-03 2.664E-04 8.620E+01
 scprqt: <Vxc>= -1.5182356E-01 hartree
 
 Pulay update with  7 previous iterations:
 mixing of old trial potential: alpha(m:m-4)=  0.737      0.269      0.249     -0.560E-01 -0.119
{SCF_istep: 8 , Vnl|psi>: 700 , wall_time: '  0.82 [s] '} <<< TIME
 
 ITER STEP NUMBER     9
 Total charge density [el/Bohr^3]
)     Maximum=    8.9792E-01  at reduced coord.    0.2500    0.7500    0.0000
)     Minimum=    3.0267E-08  at reduced coord.    0.6667    0.8750    0.5000
   Integrated=    2.6000E+01
 ETOT  9  -92.268362119110    -1.461E-03 1.736E-04 5.317E+01
 scprqt: <Vxc>= -1.5192999E-01 hartree
 
 Pulay update with  7 previous iterations:
 mixing of old trial potential: alpha(m:m-4)=  0.645      0.304     -0.518E-01  0.272      0.250E-01
{SCF_istep: 9 , Vnl|psi>: 700 , wall_time: '  0.83 [s] '} <<< TIME
 
 ITER STEP NUMBER    10
 Total charge density [el/Bohr^3]
)     Maximum=    8.9708E-01  at reduced coord.    0.2500    0.7500    0.0000
)     Minimum=    3.0258E-08  at reduced coord.    0.2083    0.3333    0.5000
   Integrated=    2.6000E+01
 ETOT 10  -92.268989743426    -6.276E-04 9.120E-05 3.604E+01
 scprqt: <Vxc>= -1.5200500E-01 hartree
 
 Pulay update with  7 previous iterations:
 mixing of old trial potential: alpha(m:m-4)=  0.982      0.227     -0.272     -0.129      0.158
 
 -------------------------------------------------------------------------------------------------
 Ekinetic   = :     2.948958E+01 Ha ,    8.024522E+02 eV
 Evext_l    = :    -5.737770E+02 Ha ,   -1.561327E+04 eV
 Evext_nl   = :     1.162205E+01 Ha ,    3.162520E+02 eV
 Epsp_core  = :     7.631172E-01 Ha ,    2.076547E+01 eV
 Ehartree   = :     2.665043E+02 Ha ,    7.251952E+03 eV
 Exc_ks     = :    -1.644431E+01 Ha ,   -4.474725E+02 eV
 Enn        = :     1.895732E+02 Ha ,    5.158549E+03 eV
 -------------------------------------------------------------------------------------------------
 Etot       = :    -9.226899E+01 Ha ,   -2.510767E+03 eV
 -------------------------------------------------------------------------------------------------
 
 Cartesian components of stress tensor (hartree/bohr^3)
  sigma(1 1)=  2.91659928E-04  sigma(3 2)=  9.71001177E-08
  sigma(2 2)=  2.94334514E-04  sigma(3 1)= -1.30037981E-07
  sigma(3 3)=  5.81745671E-04  sigma(2 1)=  5.67380628E-07
 

--- !ScfConvergenceWarning
message: |
    nstep 10 was not enough SCF cycles to converge.
...
 
 scprqt:  WARNING -
  nstep=   10 was not enough SCF cycles to converge;
  maximum energy difference=  6.276E-04 exceeds toldfe=  1.000E-08
 
 
 fftdatar_write: About to write data to: mos2o_DS1_DEN with iomode: IO_MODE_FORTRAN
 IO operation , wall:  0.04 [s] , cpu:  0.00 [s] <<< TIME
- Creating HDf5 file with MPI-IO support: mos2o_DS1_GSR.nc
 Integrated electronic density in atomic spheres:
 ------------------------------------------------
 Atom  Sphere_radius  Integrated_density
    1        2.00000         10.42008935
    2        2.00000          3.79602246
    3        2.00000          3.79527772
================================================================================
 
 ----iterations are completed or convergence reached----
 
 
 === Gap info ===
  >>>> For spin  1
   Minimum direct gap =   1.8494 [eV], located at k-point      :   0.2500  0.5000  0.5000
   Fundamental gap    =   1.5449 [eV], Top of valence bands at :   0.5000  0.5000  0.5000
                                       Bottom of conduction at :  -0.2500  0.2500  0.5000
 Mean square residual over all n,k,spin=   20.175E-07; max=  91.204E-06
   0.0000  0.0000  0.5000    1  4.89349E-06 kpt; spin; max resid(k); each band:
  1.59E-09 3.78E-09 5.76E-10 5.61E-10 1.67E-07 1.05E-07 3.96E-07 1.11E-07
  1.62E-07 2.22E-07 3.42E-07 6.21E-07 6.29E-07 4.89E-06
   0.2500  0.0000  0.5000    1  7.16875E-07 kpt; spin; max resid(k); each band:
  1.74E-09 2.77E-09 8.02E-10 5.48E-10 1.61E-07 1.23E-07 3.71E-07 3.32E-07
  2.40E-07 7.85E-08 2.83E-07 2.18E-07 7.17E-07 4.93E-07
   0.5000  0.0000  0.5000    1  1.89156E-05 kpt; spin; max resid(k); each band:
  2.21E-09 9.80E-10 1.85E-09 5.76E-10 1.43E-07 1.44E-07 2.05E-07 1.04E-07
  2.88E-07 2.79E-07 2.50E-07 2.70E-07 1.07E-06 1.89E-05
   0.0000  0.2500  0.5000    1  6.02200E-07 kpt; spin; max resid(k); each band:
  1.72E-09 2.72E-09 1.53E-09 2.15E-10 1.61E-07 1.24E-07 3.67E-07 3.42E-07
  2.42E-07 7.49E-08 2.43E-07 2.16E-07 6.02E-07 5.63E-07
   0.2500  0.2500  0.5000    1  9.12038E-05 kpt; spin; max resid(k); each band:
  1.62E-09 1.40E-09 1.87E-09 5.48E-10 1.40E-07 1.44E-07 2.08E-07 1.95E-07
  3.78E-07 2.52E-07 2.62E-07 2.59E-07 3.63E-07 9.12E-05
   0.5000  0.2500  0.5000    1  8.80818E-05 kpt; spin; max resid(k); each band:
  1.58E-09 8.14E-10 1.85E-09 1.10E-09 1.40E-07 1.43E-07 2.10E-07 1.94E-07
  3.83E-07 2.47E-07 2.77E-07 2.68E-07 3.34E-07 8.81E-05
  -0.2500  0.2500  0.5000    1  1.47678E-06 kpt; spin; max resid(k); each band:
  1.71E-09 2.79E-09 7.63E-10 6.26E-10 1.61E-07 1.24E-07 3.70E-07 3.64E-07
  2.42E-07 7.71E-08 3.06E-07 2.17E-07 6.44E-07 1.48E-06
   0.0000  0.5000  0.5000    1  1.89204E-05 kpt; spin; max resid(k); each band:
  1.75E-09 1.56E-09 1.82E-09 3.06E-10 1.44E-07 1.42E-07 1.92E-07 1.06E-07
  2.89E-07 2.83E-07 2.80E-07 4.73E-07 2.72E-07 1.89E-05
   0.2500  0.5000  0.5000    1  4.39574E-06 kpt; spin; max resid(k); each band:
  1.76E-09 1.34E-09 1.91E-09 6.07E-10 1.40E-07 1.44E-07 2.07E-07 1.89E-07
  3.67E-07 2.52E-07 2.69E-07 2.48E-07 3.46E-07 4.40E-06
   0.5000  0.5000  0.5000    1  2.92260E-05 kpt; spin; max resid(k); each band:
  2.13E-09 9.87E-10 1.84E-09 6.50E-10 1.43E-07 1.43E-07 2.03E-07 1.07E-07
  2.90E-07 2.79E-07 2.63E-07 2.87E-07 8.64E-07 2.92E-05
 
   outwf: writing wavefunctions to: mos2o_DS1_WFK with iomode: IO_MODE_FORTRAN_MASTER
 WFK output , wall:  0.08 [s] , cpu:  0.03 [s] <<< TIME
 prteigrs : about to open file mos2o_DS1_EIG
 Fermi (or HOMO) energy (hartree) =  -0.08063   Average Vxc (hartree)=  -0.15200
 Eigenvalues (hartree) for nkpt=  10  k points:
 kpt#   1, nband= 14, wtk=  0.06250, kpt=  0.0000  0.0000  0.5000 (reduced coord)
  -2.31098   -1.36056   -1.34921   -1.34906   -0.56764   -0.54400   -0.25893   -0.15832
  -0.12119   -0.12118   -0.10508   -0.08625   -0.08617    0.01704
 kpt#   2, nband= 14, wtk=  0.12500, kpt=  0.2500  0.0000  0.5000 (reduced coord)
  -2.31095   -1.35944   -1.35652   -1.35105   -0.53774   -0.52409   -0.22518   -0.18796
  -0.18491   -0.13219   -0.12165   -0.10806   -0.09434   -0.02381
 kpt#   3, nband= 14, wtk=  0.06250, kpt=  0.5000  0.0000  0.5000 (reduced coord)
  -2.31035   -1.36330   -1.35830   -1.35255   -0.49799   -0.49682   -0.26366   -0.24099
  -0.20028   -0.15817   -0.14621   -0.09966   -0.08066    0.01641
 kpt#   4, nband= 14, wtk=  0.12500, kpt=  0.0000  0.2500  0.5000 (reduced coord)
  -2.31095   -1.35944   -1.35657   -1.35099   -0.53774   -0.52409   -0.22517   -0.18798
  -0.18492   -0.13218   -0.12162   -0.10805   -0.09434   -0.02383
 kpt#   5, nband= 14, wtk=  0.12500, kpt=  0.2500  0.2500  0.5000 (reduced coord)
  -2.31054   -1.36066   -1.35828   -1.35561   -0.49838   -0.49810   -0.23303   -0.22328
  -0.18838   -0.18453   -0.16053   -0.14217   -0.08168   -0.01332
 kpt#   6, nband= 14, wtk=  0.12500, kpt=  0.5000  0.2500  0.5000 (reduced coord)
  -2.31054   -1.36073   -1.35828   -1.35553   -0.49838   -0.49810   -0.23303   -0.22329
  -0.18837   -0.18455   -0.16052   -0.14216   -0.08165   -0.01344
 kpt#   7, nband= 14, wtk=  0.12500, kpt= -0.2500  0.2500  0.5000 (reduced coord)
  -2.31095   -1.35944   -1.35664   -1.35092   -0.53774   -0.52409   -0.22515   -0.18800
  -0.18494   -0.13219   -0.12160   -0.10802   -0.09434   -0.02386
 kpt#   8, nband= 14, wtk=  0.06250, kpt=  0.0000  0.5000  0.5000 (reduced coord)
  -2.31035   -1.36335   -1.35830   -1.35250   -0.49800   -0.49682   -0.26368   -0.24099
  -0.20028   -0.15817   -0.14618   -0.09965   -0.08064    0.01776
 kpt#   9, nband= 14, wtk=  0.12500, kpt=  0.2500  0.5000  0.5000 (reduced coord)
  -2.31054   -1.36078   -1.35828   -1.35548   -0.49838   -0.49810   -0.23304   -0.22328
  -0.18837   -0.18456   -0.16051   -0.14214   -0.08164   -0.01368
 kpt#  10, nband= 14, wtk=  0.06250, kpt=  0.5000  0.5000  0.5000 (reduced coord)
  -2.31035   -1.36342   -1.35830   -1.35242   -0.49800   -0.49682   -0.26368   -0.24101
  -0.20025   -0.15818   -0.14616   -0.09963   -0.08063    0.01636
 Total charge density [el/Bohr^3]
)     Maximum=    8.9708E-01  at reduced coord.    0.2500    0.7500    0.0000
)Next maximum=    8.9698E-01  at reduced coord.    0.2500    0.5000    0.0000
)     Minimum=    3.0258E-08  at reduced coord.    0.2083    0.3333    0.5000
)Next minimum=    3.0279E-08  at reduced coord.    0.1250    0.7917    0.5000
   Integrated=    2.6000E+01
 
 Cartesian components of stress tensor (hartree/bohr^3)
  sigma(1 1)=  2.91659928E-04  sigma(3 2)=  9.71001177E-08
  sigma(2 2)=  2.94334514E-04  sigma(3 1)= -1.30037981E-07
  sigma(3 3)=  5.81745671E-04  sigma(2 1)=  5.67380628E-07
 
-Cartesian components of stress tensor (GPa)         [Pressure= -1.1452E+01 GPa]
- sigma(1 1)=  8.58092988E+00  sigma(3 2)=  2.85678361E-03
- sigma(2 2)=  8.65961891E+00  sigma(3 1)= -3.82584883E-03
- sigma(3 3)=  1.71155457E+01  sigma(2 1)=  1.66929116E-02
 dataset: 1 , wall: 15.19 [s] , cpu: 14.56 [s] <<< TIME
 
================================================================================
== DATASET  2 ==================================================================
-   mpi_nproc: 1, omp_nthreads: -1 (-1 if OMP is not activated)
 
 
--- !COMMENT
src_file: m_xgScalapack.F90
src_line: 235
message: |
    xgScalapack in auto mode
...
 
 mkfilename : getden/=0, take file _DEN from output of DATASET   1.
 
 
 getdim_nloc: deduce lmnmax  =  18, lnmax  =   6,
                      lmnmaxso=  18, lnmaxso=   6.
 Exchange-correlation functional for the present dataset will be:
  GGA: Perdew-Burke-Ernzerhof functional - ixc=11
 Citation for XC functional:
  J.P.Perdew, K.Burke, M.Ernzerhof, PRL 77, 3865 (1996)
 
 Unit cell volume ucvol=  1.1597873E+03 bohr^3
 Angles (23,13,12)=  9.00000000E+01  9.00000000E+01  1.20000000E+02 degrees
 
 getcut: wavevector=  0.0000  0.0000  0.0000  ngfft=  24  24 160
         ecut(hartree)=     20.000   => boxcut(ratio)=   2.00273
 wfconv:     8 bands initialized randomly with npw=  2436, for ikpt=     1
 wfconv:     8 bands initialized randomly with npw=  4879, for ikpt=     2
 wfconv:     8 bands initialized randomly with npw=  4881, for ikpt=     3
 wfconv:     8 bands initialized randomly with npw=  4881, for ikpt=     4
 wfconv:     8 bands initialized randomly with npw=  4899, for ikpt=     5
 wfconv:     8 bands initialized randomly with npw=  4925, for ikpt=     6
 wfconv:     8 bands initialized randomly with npw=  4927, for ikpt=     7
 wfconv:     8 bands initialized randomly with npw=  4926, for ikpt=     8
 wfconv:     8 bands initialized randomly with npw=  4926, for ikpt=     9
 wfconv:     8 bands initialized randomly with npw=  4928, for ikpt=    10
 wfconv:     8 bands initialized randomly with npw=  4942, for ikpt=    11
 wfconv:     8 bands initialized randomly with npw=  4940, for ikpt=    12
 wfconv:     8 bands initialized randomly with npw=  4918, for ikpt=    13
 wfconv:     8 bands initialized randomly with npw=  4912, for ikpt=    14
 wfconv:     8 bands initialized randomly with npw=  4934, for ikpt=    15
 wfconv:     8 bands initialized randomly with npw=  4944, for ikpt=    16
 wfconv:     8 bands initialized randomly with npw=  4952, for ikpt=    17
 wfconv:     8 bands initialized randomly with npw=  2474, for ikpt=    18
 wfconv:     8 bands initialized randomly with npw=  4948, for ikpt=    19
 wfconv:     8 bands initialized randomly with npw=  4962, for ikpt=    20
 wfconv:     8 bands initialized randomly with npw=  4968, for ikpt=    21
 wfconv:     8 bands initialized randomly with npw=  4984, for ikpt=    22
 wfconv:     8 bands initialized randomly with npw=  5004, for ikpt=    23
 wfconv:     8 bands initialized randomly with npw=  4998, for ikpt=    24
 wfconv:     8 bands initialized randomly with npw=  5000, for ikpt=    25
 wfconv:     8 bands initialized randomly with npw=  5016, for ikpt=    26
 wfconv:     8 bands initialized randomly with npw=  5006, for ikpt=    27
 wfconv:     8 bands initialized randomly with npw=  5004, for ikpt=    28
 wfconv:     8 bands initialized randomly with npw=  5008, for ikpt=    29
 wfconv:     8 bands initialized randomly with npw=  5008, for ikpt=    30
 wfconv:     8 bands initialized randomly with npw=  4996, for ikpt=    31
 wfconv:     8 bands initialized randomly with npw=  4995, for ikpt=    32
 wfconv:     8 bands initialized randomly with npw=  4994, for ikpt=    33
 wfconv:     8 bands initialized randomly with npw=  4986, for ikpt=    34
 wfconv:     8 bands initialized randomly with npw=  4976, for ikpt=    35
 wfconv:     8 bands initialized randomly with npw=  4975, for ikpt=    36
 wfconv:     8 bands initialized randomly with npw=  4962, for ikpt=    37
 wfconv:     8 bands initialized randomly with npw=  4954, for ikpt=    38
 wfconv:     8 bands initialized randomly with npw=  4962, for ikpt=    39
 wfconv:     8 bands initialized randomly with npw=  4967, for ikpt=    40
 wfconv:     8 bands initialized randomly with npw=  4973, for ikpt=    41
 wfconv:     8 bands initialized randomly with npw=  4985, for ikpt=    42
 wfconv:     8 bands initialized randomly with npw=  4992, for ikpt=    43
 wfconv:     8 bands initialized randomly with npw=  4998, for ikpt=    44
 wfconv:     8 bands initialized randomly with npw=  4999, for ikpt=    45
 wfconv:     8 bands initialized randomly with npw=  4994, for ikpt=    46
 wfconv:     8 bands initialized randomly with npw=  5016, for ikpt=    47
 wfconv:     8 bands initialized randomly with npw=  5028, for ikpt=    48
 wfconv:     8 bands initialized randomly with npw=  5012, for ikpt=    49
 wfconv:     8 bands initialized randomly with npw=  5003, for ikpt=    50
 About to read data(r) from: mos2o_DS1_DEN
 
================================================================================
 
          - hdr_check: checking restart file header for consistency -
 
 
          current calculation                           restart file
          -------------------                           ------------
 
  calculation expects a density             |  input file contains a density
. ABINIT  code version 9.10.3               |  ABINIT  code version 9.10.3
. date 20250507 bantot      544 natom    3  |  date 20250507 bantot      140 natom    3
  nkpt      68 nsym  1 ngfft  24,  24, 160  |  nkpt      10 nsym  1 ngfft  24,  24, 160
  ntypat  2 ecut_eff  20.0000000            |  ntypat  2 ecut_eff  20.0000000
  usepaw  0                                 |  usepaw  0
  usewvl  0                                 |  usewvl  0
  rprimd:                                   |  rprimd:
     2.9763187  -5.1551351   0.0000000      |     2.9763187  -5.1551351   0.0000000
     2.9763187   5.1551351   0.0000000      |     2.9763187   5.1551351   0.0000000
     0.0000000   0.0000000  37.7945227      |     0.0000000   0.0000000  37.7945227
  symafm:                                   |  symafm:
    1                                       |    1
  symrel:                                   |  symrel:
    1  0  0  0  1  0  0  0  1               |    1  0  0  0  1  0  0  0  1
  typat:                                    |  typat:
    1  2  2                                 |    1  2  2
  so_psp  :                                 |  so_psp  :
    1  1                                    |    1  1
 
--- !COMMENT
src_file: m_hdr.F90
src_line: 4232
message: |
    input kptrlatt = 0 0 0 0 0 0 0 0 0  /= disk file kptrlatt = 4 0 0 0 4 0 0 0 1
...
 
 
--- !COMMENT
src_file: m_hdr.F90
src_line: 4235
message: |
    input kptopt = -3  /= disk file kptopt = 1
...
 
 
--- !WARNING
src_file: m_hdr.F90
src_line: 4256
message: |
    input ival=0 not equal disk file ival=13
...
 
  tnons:                                    |  tnons:
     0.0000000   0.0000000   0.0000000      |     0.0000000   0.0000000   0.0000000
   znucl:                                   |   znucl:
   42.00 16.00                              |       42.00 16.00
  pseudopotential atom type  1:             |  pseudopotential atom type  1:
  pspso   0 pspxc  11                       |  pspso   0 pspxc  11
  pspdat   170510 pspcod    8 zion  14.0    |  pspdat   170510 pspcod    8 zion  14.0
  pseudopotential atom type  2:             |  pseudopotential atom type  2:
  pspso   0 pspxc  11                       |  pspso   0 pspxc  11
  pspdat   220131 pspcod    8 zion   6.0    |  pspdat   220131 pspcod    8 zion   6.0
  xred:                                     |  xred:
     0.3333333   0.6666667   0.0000000      |     0.3333333   0.6666667   0.0000000
     0.6666667   0.3333333  -0.0919442      |     0.6666667   0.3333333  -0.0919442
     0.6666667   0.3333333   0.0919442      |     0.6666667   0.3333333   0.0919442
 hdr_check:  Density/Potential file is OK for restart of calculation
================================================================================
 read_rhor , wall:  0.00 [s] , cpu:  0.00 [s] <<< TIME
 
================================================================================
 
 getcut: wavevector=  0.0000  0.0000  0.0000  ngfft=  24  24 160
         ecut(hartree)=     20.000   => boxcut(ratio)=   2.00273
 Max number of non-self-consistent loops: 10
 k-point: [ 1 / 68 ], spin: 1
   Max resid = 3.45599E+00  (exclude nbdbuf bands). One NSCF iteration cpu-time:  0.03 [s] , wall-time:  0.03 [s]
   Max resid = 9.76303E-02  (exclude nbdbuf bands). One NSCF iteration cpu-time:  0.03 [s] , wall-time:  0.03 [s]
   Max resid = 4.15816E-04  (exclude nbdbuf bands). One NSCF iteration cpu-time:  0.03 [s] , wall-time:  0.03 [s]
   Printing residuals every mod(20) iterations...
 
--- !WARNING
src_file: m_vtowfk.F90
src_line: 1008
message: |
    Wavefunctions not converged for ikpt: 1, nnsclo: 10, max resid:   4.32094E-11
...
 
 
--- !WARNING
src_file: m_vtowfk.F90
src_line: 1008
message: |
    Wavefunctions not converged for ikpt: 2, nnsclo: 10, max resid:   3.14758E-11
...
 
 
--- !WARNING
src_file: m_vtowfk.F90
src_line: 1008
message: |
    Wavefunctions not converged for ikpt: 3, nnsclo: 10, max resid:   1.21967E-11
...
 
 
--- !WARNING
src_file: m_vtowfk.F90
src_line: 1008
message: |
    Wavefunctions not converged for ikpt: 4, nnsclo: 10, max resid:   8.96390E-12
...
 
 
--- !WARNING
src_file: m_vtowfk.F90
src_line: 1008
message: |
    Wavefunctions not converged for ikpt: 5, nnsclo: 10, max resid:   5.86849E-12
...
 
 
--- !WARNING
src_file: m_vtowfk.F90
src_line: 1008
message: |
    Wavefunctions not converged for ikpt: 6, nnsclo: 10, max resid:   2.49539E-11
...
 
 
--- !WARNING
src_file: m_vtowfk.F90
src_line: 1008
message: |
    Wavefunctions not converged for ikpt: 7, nnsclo: 10, max resid:   1.23828E-11
...
 
 
--- !WARNING
src_file: m_vtowfk.F90
src_line: 1008
message: |
    Wavefunctions not converged for ikpt: 8, nnsclo: 10, max resid:   9.48200E-12
...
 
 
--- !WARNING
src_file: m_vtowfk.F90
src_line: 1008
message: |
    Wavefunctions not converged for ikpt: 9, nnsclo: 10, max resid:   4.93606E-12
...
 
 
--- !WARNING
src_file: m_vtowfk.F90
src_line: 1008
message: |
    Wavefunctions not converged for ikpt: 10, nnsclo: 10, max resid:   1.65284E-11
...
 
 
--- !WARNING
src_file: m_vtowfk.F90
src_line: 1008
message: |
    Wavefunctions not converged for ikpt: 11, nnsclo: 10, max resid:   3.01684E-12
...
 
 
--- !WARNING
src_file: m_vtowfk.F90
src_line: 1008
message: |
    Wavefunctions not converged for ikpt: 12, nnsclo: 10, max resid:   2.15841E-12
...
 
 
--- !WARNING
src_file: m_vtowfk.F90
src_line: 1008
message: |
    Wavefunctions not converged for ikpt: 13, nnsclo: 10, max resid:   3.40139E-12
...
 
 
--- !WARNING
src_file: m_vtowfk.F90
src_line: 1008
message: |
    Wavefunctions not converged for ikpt: 14, nnsclo: 10, max resid:   1.69689E-12
...
 
 
--- !WARNING
src_file: m_vtowfk.F90
src_line: 1008
message: |
    Wavefunctions not converged for ikpt: 15, nnsclo: 10, max resid:   3.35095E-12
...
 
 
--- !WARNING
src_file: m_vtowfk.F90
src_line: 1008
message: |
    Wavefunctions not converged for ikpt: 16, nnsclo: 10, max resid:   1.98613E-12
...
 
 
--- !WARNING
src_file: m_vtowfk.F90
src_line: 1008
message: |
    Wavefunctions not converged for ikpt: 17, nnsclo: 10, max resid:   1.63960E-12
...
 
 
--- !WARNING
src_file: m_vtowfk.F90
src_line: 1008
message: |
    Wavefunctions not converged for ikpt: 20, nnsclo: 10, max resid:   1.30345E-12
...
 
 
--- !WARNING
src_file: m_vtowfk.F90
src_line: 1008
message: |
    Wavefunctions not converged for ikpt: 22, nnsclo: 10, max resid:   2.54007E-12
...
 
 
--- !WARNING
src_file: m_vtowfk.F90
src_line: 1008
message: |
    Wavefunctions not converged for ikpt: 23, nnsclo: 10, max resid:   2.43657E-12
...
 
 
--- !WARNING
src_file: m_vtowfk.F90
src_line: 1008
message: |
    Wavefunctions not converged for ikpt: 24, nnsclo: 10, max resid:   1.07095E-12
...
 
 
--- !WARNING
src_file: m_vtowfk.F90
src_line: 1008
message: |
    Wavefunctions not converged for ikpt: 25, nnsclo: 10, max resid:   1.04206E-12
...
 
 
--- !WARNING
src_file: m_vtowfk.F90
src_line: 1008
message: |
    Wavefunctions not converged for ikpt: 31, nnsclo: 10, max resid:   1.63340E-12
...
 
 
--- !WARNING
src_file: m_vtowfk.F90
src_line: 1008
message: |
    Wavefunctions not converged for ikpt: 33, nnsclo: 10, max resid:   3.44238E-12
...
 
 
--- !WARNING
src_file: m_vtowfk.F90
src_line: 1008
message: |
    Wavefunctions not converged for ikpt: 37, nnsclo: 10, max resid:   2.39511E-12
...
 
 
--- !WARNING
src_file: m_vtowfk.F90
src_line: 1008
message: |
    Wavefunctions not converged for ikpt: 38, nnsclo: 10, max resid:   1.01742E-12
...
 
 
--- !WARNING
src_file: m_vtowfk.F90
src_line: 1008
message: |
    Wavefunctions not converged for ikpt: 39, nnsclo: 10, max resid:   1.10018E-12
...
 
 
--- !WARNING
src_file: m_vtowfk.F90
src_line: 1008
message: |
    Wavefunctions not converged for ikpt: 40, nnsclo: 10, max resid:   1.37967E-12
...
 
 
--- !WARNING
src_file: m_vtowfk.F90
src_line: 1008
message: |
    Wavefunctions not converged for ikpt: 41, nnsclo: 10, max resid:   1.24400E-12
...
 
 
--- !WARNING
src_file: m_vtowfk.F90
src_line: 1008
message: |
    Wavefunctions not converged for ikpt: 42, nnsclo: 10, max resid:   2.50297E-12
...
 
 
--- !WARNING
src_file: m_vtowfk.F90
src_line: 1008
message: |
    Wavefunctions not converged for ikpt: 43, nnsclo: 10, max resid:   1.26461E-12
...
 
 
--- !WARNING
src_file: m_vtowfk.F90
src_line: 1008
message: |
    Wavefunctions not converged for ikpt: 44, nnsclo: 10, max resid:   1.65092E-12
...
 
 
--- !WARNING
src_file: m_vtowfk.F90
src_line: 1008
message: |
    Wavefunctions not converged for ikpt: 46, nnsclo: 10, max resid:   1.10902E-12
...
 
 
--- !WARNING
src_file: m_vtowfk.F90
src_line: 1008
message: |
    Wavefunctions not converged for ikpt: 48, nnsclo: 10, max resid:   1.18575E-12
...
 
 
--- !WARNING
src_file: m_vtowfk.F90
src_line: 1008
message: |
    Wavefunctions not converged for ikpt: 52, nnsclo: 10, max resid:   1.22486E-12
...
 
 
--- !WARNING
src_file: m_vtowfk.F90
src_line: 1008
message: |
    Wavefunctions not converged for ikpt: 53, nnsclo: 10, max resid:   1.22478E-12
...
 
 
--- !WARNING
src_file: m_vtowfk.F90
src_line: 1008
message: |
    Wavefunctions not converged for ikpt: 54, nnsclo: 10, max resid:   1.81292E-12
...
 
 
--- !WARNING
src_file: m_vtowfk.F90
src_line: 1008
message: |
    Wavefunctions not converged for ikpt: 55, nnsclo: 10, max resid:   2.34923E-12
...
 
 
--- !WARNING
src_file: m_vtowfk.F90
src_line: 1008
message: |
    Wavefunctions not converged for ikpt: 56, nnsclo: 10, max resid:   5.74505E-12
...
 
 
--- !WARNING
src_file: m_vtowfk.F90
src_line: 1008
message: |
    Wavefunctions not converged for ikpt: 57, nnsclo: 10, max resid:   3.62063E-12
...
 
 
--- !WARNING
src_file: m_vtowfk.F90
src_line: 1008
message: |
    Wavefunctions not converged for ikpt: 58, nnsclo: 10, max resid:   4.50576E-12
...
 
 
--- !WARNING
src_file: m_vtowfk.F90
src_line: 1008
message: |
    Wavefunctions not converged for ikpt: 59, nnsclo: 10, max resid:   6.91935E-12
...
 
 
--- !WARNING
src_file: m_vtowfk.F90
src_line: 1008
message: |
    Wavefunctions not converged for ikpt: 60, nnsclo: 10, max resid:   4.52077E-12
...
 
 
--- !WARNING
src_file: m_vtowfk.F90
src_line: 1008
message: |
    Wavefunctions not converged for ikpt: 61, nnsclo: 10, max resid:   9.65562E-12
...
 
 
--- !WARNING
src_file: m_vtowfk.F90
src_line: 1008
message: |
    Wavefunctions not converged for ikpt: 62, nnsclo: 10, max resid:   1.49874E-11
...
 
 
--- !WARNING
src_file: m_vtowfk.F90
src_line: 1008
message: |
    Wavefunctions not converged for ikpt: 63, nnsclo: 10, max resid:   7.23562E-12
...
 
 
--- !WARNING
src_file: m_vtowfk.F90
src_line: 1008
message: |
    Wavefunctions not converged for ikpt: 64, nnsclo: 10, max resid:   1.77613E-11
...
 
 
--- !WARNING
src_file: m_vtowfk.F90
src_line: 1008
message: |
    Wavefunctions not converged for ikpt: 65, nnsclo: 10, max resid:   4.90195E-12
...
 
 
--- !WARNING
src_file: m_vtowfk.F90
src_line: 1008
message: |
    Wavefunctions not converged for ikpt: 66, nnsclo: 10, max resid:   1.14074E-10
...
 
 
--- !WARNING
src_file: m_vtowfk.F90
src_line: 1008
message: |
    Wavefunctions not converged for ikpt: 67, nnsclo: 10, max resid:   1.31886E-11
...
 
 
--- !WARNING
src_file: m_vtowfk.F90
src_line: 1008
message: |
    Wavefunctions not converged for ikpt: 68, nnsclo: 10, max resid:   7.69294E-12
...
 
 
 -------------------------------------------------------------------------------------------------
 Ekinetic   = :     0.000000E+00 Ha ,    0.000000E+00 eV
 Evext_l    = :     0.000000E+00 Ha ,    0.000000E+00 eV
 Evext_nl   = :     0.000000E+00 Ha ,    0.000000E+00 eV
 Epsp_core  = :     7.631172E-01 Ha ,    2.076547E+01 eV
 Ehartree   = :     0.000000E+00 Ha ,    0.000000E+00 eV
 Exc_ks     = :    -1.644431E+01 Ha ,   -4.474725E+02 eV
 Enn        = :     1.895732E+02 Ha ,    5.158549E+03 eV
 -------------------------------------------------------------------------------------------------
 Etot       = :     1.738920E+02 Ha ,    4.731842E+03 eV
 -------------------------------------------------------------------------------------------------

--- !NscfConvergenceWarning
message: |
    
     scprqt:  WARNING -
      nstep=   10 was not enough non-SCF iterations to converge;
...
 
 scprqt:  WARNING -
  nstep=   10 was not enough non-SCF iterations to converge;
  maximum residual each band. tolwfr=   1.000E-12
  iband, isppol, individual band residuals (max over all k-points):
     1     1  9.890E-13
     2     1  9.474E-13
     3     1  9.981E-13
     4     1  9.881E-13
     5     1  1.141E-10
     6     1  9.608E-12
     7     1  9.323E-06
     8     1  3.209E-04
  maximum residual=  1.141E-10 exceeds tolwfr=  1.000E-12
 
 
 fftdatar_write: About to write data to: mos2o_DS2_DEN with iomode: IO_MODE_FORTRAN
 IO operation , wall:  0.03 [s] , cpu:  0.00 [s] <<< TIME
- Creating HDf5 file with MPI-IO support: mos2o_DS2_GSR.nc
 Integrated electronic density in atomic spheres:
 ------------------------------------------------
 Atom  Sphere_radius  Integrated_density
    1        2.00000         10.42008935
    2        2.00000          3.79602246
    3        2.00000          3.79527772
================================================================================
 
 ----iterations are completed or convergence reached----
 
 
 === Gap info ===
Not enough states to calculate the band gap.
 Mean square residual over all n,k,spin=   17.533E-13; max=  11.407E-11
   0.0000  0.0000  0.0000    1  1.86237E-05 kpt; spin; max resid(k); each band:
  4.81E-13 4.21E-13 4.95E-13 2.98E-13 4.32E-11 2.22E-12 2.17E-11 1.86E-05
   0.0294  0.0000  0.0000    1  7.94435E-07 kpt; spin; max resid(k); each band:
  7.86E-13 3.66E-13 8.16E-13 4.35E-13 3.15E-11 1.68E-12 1.16E-10 7.94E-07
   0.0588  0.0000  0.0000    1  8.33738E-08 kpt; spin; max resid(k); each band:
  3.94E-13 6.51E-13 3.30E-13 7.91E-13 1.22E-11 1.77E-12 9.73E-11 8.34E-08
   0.0882  0.0000  0.0000    1  1.18047E-07 kpt; spin; max resid(k); each band:
  6.89E-13 6.32E-13 3.22E-13 4.26E-13 8.96E-12 1.56E-12 1.31E-10 1.18E-07
   0.1176  0.0000  0.0000    1  3.32543E-07 kpt; spin; max resid(k); each band:
  3.62E-13 7.83E-13 6.08E-13 4.29E-13 5.87E-12 3.22E-12 4.72E-10 3.33E-07
   0.1471  0.0000  0.0000    1  5.03105E-06 kpt; spin; max resid(k); each band:
  4.68E-13 6.77E-13 2.92E-13 3.10E-13 2.50E-11 3.77E-12 2.42E-10 5.03E-06
   0.1765  0.0000  0.0000    1  2.39852E-06 kpt; spin; max resid(k); each band:
  3.73E-13 3.68E-13 9.10E-13 2.95E-13 1.24E-11 1.17E-12 3.25E-10 2.40E-06
   0.2059  0.0000  0.0000    1  1.49811E-05 kpt; spin; max resid(k); each band:
  3.21E-13 3.87E-13 2.77E-13 6.92E-13 9.48E-12 4.38E-12 2.87E-09 1.50E-05
   0.2353  0.0000  0.0000    1  1.83971E-04 kpt; spin; max resid(k); each band:
  4.66E-13 8.48E-13 4.06E-13 5.95E-13 4.94E-12 3.89E-12 7.83E-08 1.84E-04
   0.2647  0.0000  0.0000    1  1.32121E-06 kpt; spin; max resid(k); each band:
  8.97E-13 9.31E-13 7.56E-13 3.69E-13 1.65E-11 1.77E-12 1.69E-07 1.32E-06
   0.2941  0.0000  0.0000    1  1.33337E-05 kpt; spin; max resid(k); each band:
  6.97E-13 8.60E-13 5.83E-13 5.24E-13 3.02E-12 2.36E-12 7.78E-06 1.33E-05
   0.3235  0.0000  0.0000    1  3.20926E-04 kpt; spin; max resid(k); each band:
  9.00E-13 8.06E-13 6.72E-13 8.95E-13 2.16E-12 1.28E-12 3.97E-06 3.21E-04
   0.3529  0.0000  0.0000    1  1.30052E-05 kpt; spin; max resid(k); each band:
  3.15E-13 3.87E-13 3.25E-13 2.62E-13 3.40E-12 7.66E-13 1.24E-07 1.30E-05
   0.3824  0.0000  0.0000    1  3.18653E-05 kpt; spin; max resid(k); each band:
  2.98E-13 4.61E-13 3.21E-13 6.08E-13 1.14E-12 1.70E-12 2.65E-07 3.19E-05
   0.4118  0.0000  0.0000    1  3.90295E-08 kpt; spin; max resid(k); each band:
  2.61E-13 3.26E-13 7.41E-13 2.39E-13 9.37E-13 3.35E-12 1.01E-08 3.90E-08
   0.4412  0.0000  0.0000    1  2.55153E-07 kpt; spin; max resid(k); each band:
  2.18E-13 7.85E-13 3.13E-13 5.96E-13 9.41E-13 1.99E-12 1.73E-08 2.55E-07
   0.4706  0.0000  0.0000    1  2.67011E-08 kpt; spin; max resid(k); each band:
  7.09E-13 4.09E-13 7.09E-13 3.17E-13 1.27E-12 1.64E-12 5.75E-09 2.67E-08
   0.5000  0.0000  0.0000    1  1.33607E-07 kpt; spin; max resid(k); each band:
  6.34E-13 1.98E-13 7.64E-13 3.98E-13 7.02E-13 8.02E-13 9.09E-09 1.34E-07
   0.4833  0.0333  0.0000    1  7.27204E-08 kpt; spin; max resid(k); each band:
  5.27E-13 3.04E-13 2.62E-13 2.71E-13 5.88E-13 9.08E-13 1.04E-08 7.27E-08
   0.4667  0.0667  0.0000    1  7.19990E-07 kpt; spin; max resid(k); each band:
  7.47E-13 3.37E-13 7.75E-13 3.97E-13 1.30E-12 9.32E-13 2.67E-08 7.20E-07
   0.4500  0.1000  0.0000    1  1.01256E-07 kpt; spin; max resid(k); each band:
  3.17E-13 7.42E-13 2.93E-13 4.12E-13 7.46E-13 6.20E-13 6.92E-09 1.01E-07
   0.4333  0.1333  0.0000    1  1.00792E-07 kpt; spin; max resid(k); each band:
  9.80E-13 6.62E-13 3.54E-13 5.47E-13 2.54E-12 6.11E-13 1.35E-08 1.01E-07
   0.4167  0.1667  0.0000    1  2.86015E-08 kpt; spin; max resid(k); each band:
  5.22E-13 5.10E-13 3.29E-13 4.27E-13 2.44E-12 1.44E-12 1.69E-08 2.86E-08
   0.4000  0.2000  0.0000    1  6.39504E-07 kpt; spin; max resid(k); each band:
  8.27E-13 9.39E-13 3.32E-13 9.51E-13 1.07E-12 6.59E-13 2.83E-08 6.40E-07
   0.3833  0.2333  0.0000    1  1.28540E-07 kpt; spin; max resid(k); each band:
  6.32E-13 5.54E-13 3.49E-13 4.83E-13 1.04E-12 7.77E-13 1.10E-08 1.29E-07
   0.3667  0.2667  0.0000    1  1.78655E-08 kpt; spin; max resid(k); each band:
  4.29E-13 4.74E-13 3.49E-13 7.67E-13 6.88E-13 9.06E-13 7.98E-09 1.79E-08
   0.3500  0.3000  0.0000    1  4.65842E-07 kpt; spin; max resid(k); each band:
  5.13E-13 4.59E-13 3.53E-13 7.93E-13 5.73E-13 7.04E-13 4.46E-08 4.66E-07
   0.3333  0.3333  0.0000    1  8.31948E-07 kpt; spin; max resid(k); each band:
  3.55E-13 9.34E-13 5.25E-13 5.87E-13 5.49E-13 7.59E-13 8.32E-07 3.69E-07
   0.3500  0.3500  0.0250    1  1.52989E-07 kpt; spin; max resid(k); each band:
  3.25E-13 5.99E-13 3.00E-13 2.79E-13 8.71E-13 9.88E-13 2.97E-08 1.53E-07
   0.3667  0.3667  0.0500    1  6.61714E-08 kpt; spin; max resid(k); each band:
  5.22E-13 4.89E-13 5.54E-13 3.27E-13 6.14E-13 6.07E-13 6.62E-08 4.48E-09
   0.3833  0.3833  0.0750    1  3.40990E-08 kpt; spin; max resid(k); each band:
  9.16E-13 7.16E-13 5.17E-13 3.29E-13 1.63E-12 1.08E-12 2.82E-08 3.41E-08
   0.4000  0.4000  0.1000    1  5.94877E-08 kpt; spin; max resid(k); each band:
  4.20E-13 4.28E-13 9.38E-13 5.49E-13 5.68E-13 9.56E-13 3.55E-08 5.95E-08
   0.4167  0.4167  0.1250    1  1.00189E-08 kpt; spin; max resid(k); each band:
  5.01E-13 3.52E-13 8.44E-13 3.64E-13 3.44E-12 6.74E-13 1.00E-08 1.07E-09
   0.4333  0.4333  0.1500    1  2.25631E-08 kpt; spin; max resid(k); each band:
  3.94E-13 8.97E-13 9.98E-13 3.21E-13 7.98E-13 8.58E-13 4.37E-09 2.26E-08
   0.4500  0.4500  0.1750    1  5.50209E-08 kpt; spin; max resid(k); each band:
  4.57E-13 6.80E-13 8.47E-13 4.20E-13 9.72E-13 5.70E-13 3.89E-08 5.50E-08
   0.4667  0.4667  0.2000    1  1.73207E-07 kpt; spin; max resid(k); each band:
  2.84E-13 2.83E-13 5.53E-13 3.27E-13 8.99E-13 6.41E-13 1.12E-08 1.73E-07
   0.4833  0.4833  0.2250    1  1.75654E-06 kpt; spin; max resid(k); each band:
  5.64E-13 2.37E-13 3.02E-13 5.46E-13 5.83E-13 2.40E-12 2.46E-08 1.76E-06
   0.5000  0.5000  0.2500    1  1.01010E-07 kpt; spin; max resid(k); each band:
  4.91E-13 7.20E-13 7.23E-13 2.87E-13 1.02E-12 4.41E-13 3.30E-10 1.01E-07
   0.5167  0.5167  0.2750    1  1.14676E-06 kpt; spin; max resid(k); each band:
  6.20E-13 7.47E-13 9.96E-13 6.06E-13 9.42E-13 1.10E-12 1.91E-08 1.15E-06
   0.5333  0.5333  0.3000    1  3.46760E-08 kpt; spin; max resid(k); each band:
  3.74E-13 6.80E-13 5.83E-13 8.38E-13 7.30E-13 1.38E-12 8.97E-09 3.47E-08
   0.5500  0.5500  0.3250    1  3.47109E-07 kpt; spin; max resid(k); each band:
  7.84E-13 7.17E-13 8.21E-13 6.54E-13 8.99E-13 1.24E-12 3.70E-09 3.47E-07
   0.5667  0.5667  0.3500    1  1.04628E-06 kpt; spin; max resid(k); each band:
  6.60E-13 2.53E-13 4.05E-13 4.73E-13 8.71E-13 2.50E-12 7.00E-09 1.05E-06
   0.5833  0.5833  0.3750    1  6.37995E-08 kpt; spin; max resid(k); each band:
  9.89E-13 4.47E-13 6.21E-13 4.51E-13 1.26E-12 9.02E-13 1.48E-08 6.38E-08
   0.6000  0.6000  0.4000    1  4.26380E-08 kpt; spin; max resid(k); each band:
  6.62E-13 3.74E-13 3.09E-13 4.10E-13 1.65E-12 6.10E-13 2.00E-08 4.26E-08
   0.6167  0.6167  0.4250    1  3.62046E-08 kpt; spin; max resid(k); each band:
  4.96E-13 3.21E-13 4.55E-13 7.35E-13 7.64E-13 7.88E-13 5.17E-09 3.62E-08
   0.6333  0.6333  0.4500    1  2.12409E-08 kpt; spin; max resid(k); each band:
  6.18E-13 5.37E-13 9.47E-13 3.56E-13 1.11E-12 5.56E-13 2.12E-08 8.87E-09
   0.6500  0.6500  0.4750    1  3.06396E-07 kpt; spin; max resid(k); each band:
  6.04E-13 7.87E-13 8.27E-13 3.97E-13 3.18E-13 4.16E-13 3.06E-07 2.91E-07
   0.6667  0.6667  0.5000    1  1.91201E-07 kpt; spin; max resid(k); each band:
  4.51E-13 6.57E-13 2.98E-13 3.46E-13 1.19E-12 9.44E-13 1.91E-07 1.66E-07
   0.6833  0.6833  0.5250    1  8.23286E-07 kpt; spin; max resid(k); each band:
  3.33E-13 9.47E-13 3.68E-13 9.82E-13 6.13E-13 4.99E-13 8.23E-07 1.18E-07
   0.7000  0.7000  0.5500    1  2.83142E-07 kpt; spin; max resid(k); each band:
  5.20E-13 8.03E-13 6.34E-13 5.50E-13 8.89E-13 9.76E-13 2.83E-07 5.23E-08
 outwf : prtvol=0 or 1, do not print more k-points.
 
 
   outwf: writing wavefunctions to: mos2o_DS2_WFK with iomode: IO_MODE_FORTRAN_MASTER
 WFK output , wall:  0.13 [s] , cpu:  0.08 [s] <<< TIME
 prteigrs : about to open file mos2o_DS2_EIG
 Eigenvalues (   eV  ) for nkpt=  68  k points:
 kpt#   1, nband=  8, wtk=  1.00000, kpt=  0.0000  0.0000  0.0000 (reduced coord)
 -61.66670  -35.85704  -35.50174  -35.49902  -14.78540  -14.17875   -6.27459   -3.72907
 kpt#   2, nband=  8, wtk=  1.00000, kpt=  0.0294  0.0000  0.0000 (reduced coord)
 -61.66812  -35.85527  -35.50803  -35.50048  -14.77314  -14.17028   -6.25764   -3.73756
 kpt#   3, nband=  8, wtk=  1.00000, kpt=  0.0588  0.0000  0.0000 (reduced coord)
 -61.66741  -35.85218  -35.51855  -35.50380  -14.73640  -14.14504   -6.20746   -3.76165
 kpt#   4, nband=  8, wtk=  1.00000, kpt=  0.0882  0.0000  0.0000 (reduced coord)
 -61.66550  -35.85014  -35.53333  -35.50725  -14.67569  -14.10350   -6.12626   -3.80163
 kpt#   5, nband=  8, wtk=  1.00000, kpt=  0.1176  0.0000  0.0000 (reduced coord)
 -61.66748  -35.84771  -35.55907  -35.51230  -14.59211  -14.04630   -6.01712   -3.85807
 kpt#   6, nband=  8, wtk=  1.00000, kpt=  0.1471  0.0000  0.0000 (reduced coord)
 -61.67102  -35.84530  -35.58924  -35.52079  -14.48682  -13.97435   -5.88421   -3.93163
 kpt#   7, nband=  8, wtk=  1.00000, kpt=  0.1765  0.0000  0.0000 (reduced coord)
 -61.66827  -35.83857  -35.62003  -35.52833  -14.36148  -13.88877   -5.73340   -4.02588
 kpt#   8, nband=  8, wtk=  1.00000, kpt=  0.2059  0.0000  0.0000 (reduced coord)
 -61.66471  -35.83259  -35.65170  -35.53609  -14.21839  -13.79137   -5.57476   -4.14411
 kpt#   9, nband=  8, wtk=  1.00000, kpt=  0.2353  0.0000  0.0000 (reduced coord)
 -61.66109  -35.82428  -35.68675  -35.54471  -14.06068  -13.68421   -5.42243   -4.23339
 kpt#  10, nband=  8, wtk=  1.00000, kpt=  0.2647  0.0000  0.0000 (reduced coord)
 -61.65784  -35.81813  -35.72119  -35.55286  -13.89172  -13.56999   -5.30277   -4.48891
 kpt#  11, nband=  8, wtk=  1.00000, kpt=  0.2941  0.0000  0.0000 (reduced coord)
 -61.65782  -35.81320  -35.75735  -35.56169  -13.71607  -13.45199   -5.27627   -4.64514
 kpt#  12, nband=  8, wtk=  1.00000, kpt=  0.3235  0.0000  0.0000 (reduced coord)
 -61.65365  -35.80817  -35.78762  -35.56864  -13.53891  -13.33393   -5.41784   -4.80682
 kpt#  13, nband=  8, wtk=  1.00000, kpt=  0.3529  0.0000  0.0000 (reduced coord)
 -61.64450  -35.81418  -35.79966  -35.57240  -13.36684  -13.22025   -5.66147   -5.19469
 kpt#  14, nband=  8, wtk=  1.00000, kpt=  0.3824  0.0000  0.0000 (reduced coord)
 -61.64008  -35.83850  -35.79467  -35.57680  -13.20794  -13.11603   -5.91391   -5.41666
 kpt#  15, nband=  8, wtk=  1.00000, kpt=  0.4118  0.0000  0.0000 (reduced coord)
 -61.64340  -35.86405  -35.79158  -35.58328  -13.07205  -13.02581   -6.13679   -5.60809
 kpt#  16, nband=  8, wtk=  1.00000, kpt=  0.4412  0.0000  0.0000 (reduced coord)
 -61.64427  -35.88002  -35.79078  -35.58731  -12.97358  -12.94902   -6.30908   -5.75226
 kpt#  17, nband=  8, wtk=  1.00000, kpt=  0.4706  0.0000  0.0000 (reduced coord)
 -61.64541  -35.88993  -35.79043  -35.59023  -12.92349  -12.88797   -6.41783   -5.84236
 kpt#  18, nband=  8, wtk=  1.00000, kpt=  0.5000  0.0000  0.0000 (reduced coord)
 -61.64391  -35.89277  -35.79027  -35.58921  -12.90784  -12.86547   -6.45503   -5.87304
 kpt#  19, nband=  8, wtk=  1.00000, kpt=  0.4833  0.0333  0.0000 (reduced coord)
 -61.64387  -35.89270  -35.78828  -35.59255  -12.90323  -12.85990   -6.44022   -5.86703
 kpt#  20, nband=  8, wtk=  1.00000, kpt=  0.4667  0.0667  0.0000 (reduced coord)
 -61.64672  -35.88916  -35.78713  -35.60521  -12.88976  -12.84347   -6.39594   -5.84972
 kpt#  21, nband=  8, wtk=  1.00000, kpt=  0.4500  0.1000  0.0000 (reduced coord)
 -61.64748  -35.88296  -35.78679  -35.61897  -12.86834  -12.81708   -6.32300   -5.82284
 kpt#  22, nband=  8, wtk=  1.00000, kpt=  0.4333  0.1333  0.0000 (reduced coord)
 -61.65060  -35.87559  -35.78618  -35.63927  -12.84048  -12.78234   -6.22302   -5.78920
 kpt#  23, nband=  8, wtk=  1.00000, kpt=  0.4167  0.1667  0.0000 (reduced coord)
 -61.65471  -35.86463  -35.78817  -35.66289  -12.80824  -12.74161   -6.09782   -5.75329
 kpt#  24, nband=  8, wtk=  1.00000, kpt=  0.4000  0.2000  0.0000 (reduced coord)
 -61.65213  -35.85180  -35.78582  -35.68361  -12.77419  -12.69800   -5.95060   -5.72063
 kpt#  25, nband=  8, wtk=  1.00000, kpt=  0.3833  0.2333  0.0000 (reduced coord)
 -61.65164  -35.83596  -35.78531  -35.70801  -12.74145  -12.65543   -5.78617   -5.69725
 kpt#  26, nband=  8, wtk=  1.00000, kpt=  0.3667  0.2667  0.0000 (reduced coord)
 -61.65472  -35.82177  -35.78472  -35.73443  -12.71353  -12.61859   -5.68921   -5.61121
 kpt#  27, nband=  8, wtk=  1.00000, kpt=  0.3500  0.3000  0.0000 (reduced coord)
 -61.65141  -35.80333  -35.77993  -35.75804  -12.69408  -12.59248   -5.68987   -5.45273
 kpt#  28, nband=  8, wtk=  1.00000, kpt=  0.3333  0.3333  0.0000 (reduced coord)
 -61.65068  -35.79008  -35.78098  -35.77105  -12.68683  -12.58256   -5.69322   -5.37755
 kpt#  29, nband=  8, wtk=  1.00000, kpt=  0.3500  0.3500  0.0250 (reduced coord)
 -61.65196  -35.80138  -35.77991  -35.76076  -12.69406  -12.59249   -5.68986   -5.45261
 kpt#  30, nband=  8, wtk=  1.00000, kpt=  0.3667  0.3667  0.0500 (reduced coord)
 -61.65264  -35.81870  -35.78295  -35.73636  -12.71348  -12.61860   -5.68910   -5.61088
 kpt#  31, nband=  8, wtk=  1.00000, kpt=  0.3833  0.3833  0.0750 (reduced coord)
 -61.65061  -35.83418  -35.78408  -35.70956  -12.74139  -12.65547   -5.78593   -5.69710
 kpt#  32, nband=  8, wtk=  1.00000, kpt=  0.4000  0.4000  0.1000 (reduced coord)
 -61.65140  -35.84887  -35.78531  -35.68604  -12.77410  -12.69802   -5.95031   -5.72043
 kpt#  33, nband=  8, wtk=  1.00000, kpt=  0.4167  0.4167  0.1250 (reduced coord)
 -61.65218  -35.86229  -35.78613  -35.66372  -12.80814  -12.74165   -6.09758   -5.75300
 kpt#  34, nband=  8, wtk=  1.00000, kpt=  0.4333  0.4333  0.1500 (reduced coord)
 -61.65110  -35.87235  -35.78775  -35.64167  -12.84037  -12.78241   -6.22271   -5.78896
 kpt#  35, nband=  8, wtk=  1.00000, kpt=  0.4500  0.4500  0.1750 (reduced coord)
 -61.64953  -35.88053  -35.78914  -35.62197  -12.86824  -12.81716   -6.32276   -5.82264
 kpt#  36, nband=  8, wtk=  1.00000, kpt=  0.4667  0.4667  0.2000 (reduced coord)
 -61.65005  -35.88739  -35.79038  -35.60845  -12.88967  -12.84357   -6.39577   -5.84959
 kpt#  37, nband=  8, wtk=  1.00000, kpt=  0.4833  0.4833  0.2250 (reduced coord)
 -61.64744  -35.89150  -35.79053  -35.59653  -12.90314  -12.86003   -6.44017   -5.86682
 kpt#  38, nband=  8, wtk=  1.00000, kpt=  0.5000  0.5000  0.2500 (reduced coord)
 -61.64569  -35.89216  -35.79009  -35.59241  -12.90773  -12.86559   -6.45497   -5.87276
 kpt#  39, nband=  8, wtk=  1.00000, kpt=  0.5167  0.5167  0.2750 (reduced coord)
 -61.64742  -35.89070  -35.79161  -35.59626  -12.90314  -12.86002   -6.44010   -5.86684
 kpt#  40, nband=  8, wtk=  1.00000, kpt=  0.5333  0.5333  0.3000 (reduced coord)
 -61.64793  -35.88570  -35.78940  -35.60823  -12.88964  -12.84351   -6.39559   -5.84949
 kpt#  41, nband=  8, wtk=  1.00000, kpt=  0.5500  0.5500  0.3250 (reduced coord)
 -61.64865  -35.88011  -35.78893  -35.62147  -12.86824  -12.81714   -6.32271   -5.82261
 kpt#  42, nband=  8, wtk=  1.00000, kpt=  0.5667  0.5667  0.3500 (reduced coord)
 -61.65077  -35.87196  -35.78738  -35.64206  -12.84037  -12.78238   -6.22261   -5.78888
 kpt#  43, nband=  8, wtk=  1.00000, kpt=  0.5833  0.5833  0.3750 (reduced coord)
 -61.65159  -35.86254  -35.78507  -35.66374  -12.80814  -12.74168   -6.09763   -5.75293
 kpt#  44, nband=  8, wtk=  1.00000, kpt=  0.6000  0.6000  0.4000 (reduced coord)
 -61.65210  -35.85020  -35.78386  -35.68719  -12.77411  -12.69810   -5.95050   -5.72042
 kpt#  45, nband=  8, wtk=  1.00000, kpt=  0.6167  0.6167  0.4250 (reduced coord)
 -61.65135  -35.83532  -35.78278  -35.71074  -12.74137  -12.65550   -5.78601   -5.69705
 kpt#  46, nband=  8, wtk=  1.00000, kpt=  0.6333  0.6333  0.4500 (reduced coord)
 -61.64908  -35.81769  -35.78186  -35.73345  -12.71344  -12.61850   -5.68896   -5.61061
 kpt#  47, nband=  8, wtk=  1.00000, kpt=  0.6500  0.6500  0.4750 (reduced coord)
 -61.65433  -35.80327  -35.78201  -35.75980  -12.69407  -12.59250   -5.68997   -5.45268
 kpt#  48, nband=  8, wtk=  1.00000, kpt=  0.6667  0.6667  0.5000 (reduced coord)
 -61.65729  -35.79371  -35.78259  -35.77464  -12.68687  -12.58273   -5.69338   -5.37816
 kpt#  49, nband=  8, wtk=  1.00000, kpt=  0.6833  0.6833  0.5250 (reduced coord)
 -61.65323  -35.80241  -35.78185  -35.75912  -12.69505  -12.59404   -5.68534   -5.44099
 kpt#  50, nband=  8, wtk=  1.00000, kpt=  0.7000  0.7000  0.5500 (reduced coord)
 -61.65155  -35.81443  -35.78249  -35.73787  -12.72110  -12.63090   -5.65332   -5.54527
 kpt#  51, nband=  8, wtk=  1.00000, kpt=  0.7167  0.7167  0.5750 (reduced coord)
 -61.65040  -35.82155  -35.78356  -35.71696  -12.76646  -12.69563   -5.62086   -5.58489
 kpt#  52, nband=  8, wtk=  1.00000, kpt=  0.7333  0.7333  0.6000 (reduced coord)
 -61.65122  -35.82447  -35.78691  -35.69562  -12.83171  -12.78768   -5.64008   -5.48037
 kpt#  53, nband=  8, wtk=  1.00000, kpt=  0.7500  0.7500  0.6250 (reduced coord)
 -61.65221  -35.82088  -35.79086  -35.67557  -12.92272  -12.89797   -5.60366   -5.33331
 kpt#  54, nband=  8, wtk=  1.00000, kpt=  0.7667  0.7667  0.6500 (reduced coord)
 -61.65065  -35.80959  -35.79456  -35.65502  -13.05736  -13.00215   -5.51344   -5.14702
 kpt#  55, nband=  8, wtk=  1.00000, kpt=  0.7833  0.7833  0.6750 (reduced coord)
 -61.65129  -35.79787  -35.79706  -35.63471  -13.21624  -13.11120   -5.37873   -4.92821
 kpt#  56, nband=  8, wtk=  1.00000, kpt=  0.8000  0.8000  0.7000 (reduced coord)
 -61.65347  -35.80285  -35.77974  -35.61583  -13.38781  -13.22739   -5.21991   -4.69166
 kpt#  57, nband=  8, wtk=  1.00000, kpt=  0.8167  0.8167  0.7250 (reduced coord)
 -61.65557  -35.80801  -35.75765  -35.59836  -13.56554  -13.34753   -5.10013   -4.63089
 kpt#  58, nband=  8, wtk=  1.00000, kpt=  0.8333  0.8333  0.7500 (reduced coord)
 -61.65981  -35.81533  -35.73210  -35.58300  -13.74397  -13.46837   -5.12629   -4.44350
 kpt#  59, nband=  8, wtk=  1.00000, kpt=  0.8500  0.8500  0.7750 (reduced coord)
 -61.66099  -35.82058  -35.70272  -35.56800  -13.91800  -13.58654   -5.25454   -4.25652
 kpt#  60, nband=  8, wtk=  1.00000, kpt=  0.8667  0.8667  0.8000 (reduced coord)
 -61.66179  -35.82617  -35.67120  -35.55418  -14.08358  -13.69919   -5.41498   -4.14847
 kpt#  61, nband=  8, wtk=  1.00000, kpt=  0.8833  0.8833  0.8250 (reduced coord)
 -61.66627  -35.83227  -35.64215  -35.54358  -14.23740  -13.80394   -5.58297   -4.06886
 kpt#  62, nband=  8, wtk=  1.00000, kpt=  0.9000  0.9000  0.8500 (reduced coord)
 -61.66923  -35.83867  -35.61253  -35.53311  -14.37615  -13.89862   -5.74593   -3.98922
 kpt#  63, nband=  8, wtk=  1.00000, kpt=  0.9167  0.9167  0.8750 (reduced coord)
 -61.66971  -35.84393  -35.58347  -35.52299  -14.49733  -13.98146   -5.89552   -3.91517
 kpt#  64, nband=  8, wtk=  1.00000, kpt=  0.9333  0.9333  0.9000 (reduced coord)
 -61.67133  -35.84840  -35.55718  -35.51700  -14.59913  -14.05105   -6.02577   -3.85080
 kpt#  65, nband=  8, wtk=  1.00000, kpt=  0.9500  0.9500  0.9250 (reduced coord)
 -61.66804  -35.85082  -35.53213  -35.51022  -14.67969  -14.10624   -6.13162   -3.79858
 kpt#  66, nband=  8, wtk=  1.00000, kpt=  0.9667  0.9667  0.9500 (reduced coord)
 -61.66966  -35.85268  -35.51841  -35.50608  -14.73825  -14.14628   -6.20997   -3.76044
 kpt#  67, nband=  8, wtk=  1.00000, kpt=  0.9833  0.9833  0.9750 (reduced coord)
 -61.66938  -35.85581  -35.50776  -35.50186  -14.77362  -14.17061   -6.25841   -3.73732
 kpt#  68, nband=  8, wtk=  1.00000, kpt=  1.0000  1.0000  1.0000 (reduced coord)
 -61.66670  -35.85704  -35.50174  -35.49902  -14.78540  -14.17875   -6.27459   -3.72959
 Total charge density [el/Bohr^3]
)     Maximum=    8.9708E-01  at reduced coord.    0.2500    0.7500    0.0000
)Next maximum=    8.9698E-01  at reduced coord.    0.2500    0.5000    0.0000
)     Minimum=    3.0258E-08  at reduced coord.    0.2083    0.3333    0.5000
)Next minimum=    3.0279E-08  at reduced coord.    0.1250    0.7917    0.5000
   Integrated=    2.6000E+01
 dataset: 2 , wall: 28.70 [s] , cpu: 28.12 [s] <<< TIME
 
== END DATASET(S) ==============================================================
================================================================================
  
 -outvars: echo values of variables after computation  --------
 
 These variables are accessible in NetCDF format (mos2o_OUT.nc)

            acell      5.9526373186E+00  5.9526373186E+00  3.7794522658E+01 Bohr
              amu      9.59400000E+01  3.20660000E+01
      chksymbreak           0
             ecut      2.00000000E+01 Hartree
           enunit1          0
           enunit2          1
           etotal1    -9.2268989743E+01
            fcart1     1.3629213110E-04 -3.2367312357E-05  1.2284707998E-04
                      -7.5232148359E-05  1.9673178327E-05  7.2906140453E-02
                      -6.1059982743E-05  1.2694134029E-05 -7.3028987533E-02
-          fftalg         512
           getden1          0
           getden2         -1
             iscf1          7
             iscf2         -2
           istwfk1       4    0    5    0    0    0    0    8    0    9
           istwfk2       2    0    0    0    0    0    0    0    0    0
                         0    0    0    0    0    0    0    3    0    0
                         0    0    0    0    0    0    0    0    0    0
                         0    0    0    0    0    0    0    0    0    0
                         0    0    0    0    0    0    0    0    0    0
                       outvar_i_n : Printing only first  50 k-points.
              ixc          11
           jdtset        1    2
              kpt1     0.00000000E+00  0.00000000E+00  5.00000000E-01
                       2.50000000E-01  0.00000000E+00  5.00000000E-01
                       5.00000000E-01  0.00000000E+00  5.00000000E-01
                       0.00000000E+00  2.50000000E-01  5.00000000E-01
                       2.50000000E-01  2.50000000E-01  5.00000000E-01
                       5.00000000E-01  2.50000000E-01  5.00000000E-01
                      -2.50000000E-01  2.50000000E-01  5.00000000E-01
                       0.00000000E+00  5.00000000E-01  5.00000000E-01
                       2.50000000E-01  5.00000000E-01  5.00000000E-01
                       5.00000000E-01  5.00000000E-01  5.00000000E-01
              kpt2     0.00000000E+00  0.00000000E+00  0.00000000E+00
                       2.94117647E-02  0.00000000E+00  0.00000000E+00
                       5.88235294E-02  0.00000000E+00  0.00000000E+00
                       8.82352941E-02  0.00000000E+00  0.00000000E+00
                       1.17647059E-01  0.00000000E+00  0.00000000E+00
                       1.47058824E-01  0.00000000E+00  0.00000000E+00
                       1.76470588E-01  0.00000000E+00  0.00000000E+00
                       2.05882353E-01  0.00000000E+00  0.00000000E+00
                       2.35294118E-01  0.00000000E+00  0.00000000E+00
                       2.64705882E-01  0.00000000E+00  0.00000000E+00
                       2.94117647E-01  0.00000000E+00  0.00000000E+00
                       3.23529412E-01  0.00000000E+00  0.00000000E+00
                       3.52941176E-01  0.00000000E+00  0.00000000E+00
                       3.82352941E-01  0.00000000E+00  0.00000000E+00
                       4.11764706E-01  0.00000000E+00  0.00000000E+00
                       4.41176471E-01  0.00000000E+00  0.00000000E+00
                       4.70588235E-01  0.00000000E+00  0.00000000E+00
                       5.00000000E-01  0.00000000E+00  0.00000000E+00
                       4.83333333E-01  3.33333333E-02  0.00000000E+00
                       4.66666667E-01  6.66666667E-02  0.00000000E+00
                       4.50000000E-01  1.00000000E-01  0.00000000E+00
                       4.33333333E-01  1.33333333E-01  0.00000000E+00
                       4.16666667E-01  1.66666667E-01  0.00000000E+00
                       4.00000000E-01  2.00000000E-01  0.00000000E+00
                       3.83333333E-01  2.33333333E-01  0.00000000E+00
                       3.66666667E-01  2.66666667E-01  0.00000000E+00
                       3.50000000E-01  3.00000000E-01  0.00000000E+00
                       3.33333333E-01  3.33333333E-01  0.00000000E+00
                       3.50000000E-01  3.50000000E-01  2.50000000E-02
                       3.66666667E-01  3.66666667E-01  5.00000000E-02
                       3.83333333E-01  3.83333333E-01  7.50000000E-02
                       4.00000000E-01  4.00000000E-01  1.00000000E-01
                       4.16666667E-01  4.16666667E-01  1.25000000E-01
                       4.33333333E-01  4.33333333E-01  1.50000000E-01
                       4.50000000E-01  4.50000000E-01  1.75000000E-01
                       4.66666667E-01  4.66666667E-01  2.00000000E-01
                       4.83333333E-01  4.83333333E-01  2.25000000E-01
                       5.00000000E-01  5.00000000E-01  2.50000000E-01
                       5.16666667E-01  5.16666667E-01  2.75000000E-01
                       5.33333333E-01  5.33333333E-01  3.00000000E-01
                       5.50000000E-01  5.50000000E-01  3.25000000E-01
                       5.66666667E-01  5.66666667E-01  3.50000000E-01
                       5.83333333E-01  5.83333333E-01  3.75000000E-01
                       6.00000000E-01  6.00000000E-01  4.00000000E-01
                       6.16666667E-01  6.16666667E-01  4.25000000E-01
                       6.33333333E-01  6.33333333E-01  4.50000000E-01
                       6.50000000E-01  6.50000000E-01  4.75000000E-01
                       6.66666667E-01  6.66666667E-01  5.00000000E-01
                       6.83333333E-01  6.83333333E-01  5.25000000E-01
                       7.00000000E-01  7.00000000E-01  5.50000000E-01
                       outvar_i_n : Printing only first  50 k-points.
           kptopt1          1
           kptopt2         -3
         kptrlatt        4    0    0      0    4    0      0    0    1
          kptrlen1     2.38105493E+01
          kptrlen2     3.00000000E+01
P           mkmem1         10
P           mkmem2         68
            natom           3
            nband1         14
            nband2          8
           nbdbuf1          0
           nbdbuf2          2
           ndtset           2
           ndivsm1          0
           ndivsm2         10
            ngfft          24      24     160
             nkpt1         10
             nkpt2         68
            nstep          10
             nsym           1
           ntypat           2
              occ      2.000000  2.000000  2.000000  2.000000  2.000000  2.000000
                       2.000000  2.000000  2.000000  2.000000  2.000000  2.000000
                       2.000000  0.000000
            rprim      5.0000000000E-01 -8.6602540378E-01  0.0000000000E+00
                       5.0000000000E-01  8.6602540378E-01  0.0000000000E+00
                       0.0000000000E+00  0.0000000000E+00  1.0000000000E+00
           shiftk1     0.00000000E+00  0.00000000E+00  5.00000000E-01
           shiftk2     5.00000000E-01  5.00000000E-01  5.00000000E-01
          spgroup           1
           strten1     2.9165992756E-04  2.9433451381E-04  5.8174567098E-04
                       9.7100117714E-08 -1.3003798059E-07  5.6738062772E-07
           toldfe1     1.00000000E-08 Hartree
           toldfe2     0.00000000E+00 Hartree
           tolwfr1     0.00000000E+00
           tolwfr2     1.00000000E-12
            typat      1  2  2
              wtk1       0.06250    0.12500    0.06250    0.12500    0.12500    0.12500
                         0.12500    0.06250    0.12500    0.06250
              wtk2       1.00000    1.00000    1.00000    1.00000    1.00000    1.00000
                         1.00000    1.00000    1.00000    1.00000    1.00000    1.00000
                         1.00000    1.00000    1.00000    1.00000    1.00000    1.00000
                         1.00000    1.00000    1.00000    1.00000    1.00000    1.00000
                         1.00000    1.00000    1.00000    1.00000    1.00000    1.00000
                         1.00000    1.00000    1.00000    1.00000    1.00000    1.00000
                         1.00000    1.00000    1.00000    1.00000    1.00000    1.00000
                         1.00000    1.00000    1.00000    1.00000    1.00000    1.00000
                         1.00000    1.00000
                       outvars : Printing only first  50 k-points.
           xangst      1.5750000000E+00  9.0932667397E-01  0.0000000000E+00
                       1.5750000000E+00 -9.0932667397E-01 -1.8388847000E+00
                       1.5750000000E+00 -9.0932667397E-01  1.8388847000E+00
            xcart      2.9763186593E+00  1.7183783791E+00  0.0000000000E+00
                       2.9763186593E+00 -1.7183783791E+00 -3.4749884730E+00
                       2.9763186593E+00 -1.7183783791E+00  3.4749884730E+00
             xred      3.3333333333E-01  6.6666666667E-01  0.0000000000E+00
                       6.6666666667E-01  3.3333333333E-01 -9.1944235000E-02
                       6.6666666667E-01  3.3333333333E-01  9.1944235000E-02
            znucl       42.00000   16.00000
 
================================================================================
  
 Proc.   0 individual time (sec): cpu=         42.9  wall=         44.2
 
 Calculation completed.
.Delivered  56 WARNINGs and  10 COMMENTs to log file.

--- !FinalSummary
program: abinit
version: 9.10.3
start_datetime: Wed May 07 08:21:55 2025
end_datetime: Wed May 07 08:22:39 2025
overall_cpu_time:          42.9
overall_wall_time:          44.2
exit_requested_by_user: no 
timelimit: 0
pseudos: 
    Mo  : 228091cb5782e08cb8d68936b3c7e57b
    S   : ee4b2e2802f5df21cf2ecc26b1029f69
usepaw: 0
mpi_procs: 1
omp_threads: 1
num_warnings: 56
num_comments: 10
...
