  ABINIT 9.10.3
  
-instrng: 44 lines of input have been read from file mos2_k_draft.abi
 
 
--- !COMMENT
src_file: m_dtfil.F90
src_line: 1441
message: |
    Output file: mos2_k_draft.abo already exists.
...
 
 
--- !COMMENT
src_file: m_dtfil.F90
src_line: 1465
message: |
    Renaming old: mos2_k_draft.abo to: mos2_k_draft.abo0002
...
 

.Version 9.10.3 of ABINIT 
.(MPI version, prepared for a x86_64_linux_intel2021.6 computer) 

.Copyright (C) 1998-2022 ABINIT group . 
 ABINIT comes with ABSOLUTELY NO WARRANTY.
 It is free software, and you are welcome to redistribute it
 under certain conditions (GNU General Public License,
 see ~abinit/COPYING or http://www.gnu.org/copyleft/gpl.txt).

 ABINIT is a project of the Universite Catholique de Louvain,
 Corning Inc. and other collaborators, see ~abinit/doc/developers/contributors.txt .
 Please read https://docs.abinit.org/theory/acknowledgments for suggested
 acknowledgments of the ABINIT effort.
 For more information, see https://www.abinit.org .

.Starting date : Wed  7 May 2025.
- ( at 07h49 )
  
 
 ++++++++++++++++++++++++++++++++++++++++++++++++++++++++++++++++++++++++++++++
 
 === Build Information === 
  Version       : 9.10.3
  Build target  : x86_64_linux_intel2021.6
  Build date    : 20240126
 
 === Compiler Suite === 
  C compiler       : intel2021.6
  C++ compiler     : gnu2021.6
  Fortran compiler : intel2021.6
  CFLAGS           : -g -O2
  CXXFLAGS         : -g -O2 -mtune=native -march=native
  FCFLAGS          : -g -extend-source -nofpscomp     -I/shared/ucl/apps/NetCDF/4.9.2-in ...
  FC_LDFLAGS       :   -static-intel -static-libgcc
 
 === Optimizations === 
  Debug level        : basic
  Optimization level : standard
  Architecture       : intel_xeon
 
 === Multicore === 
  Parallel build : /shared/ucl/apps/intel/2020/impi/2019.6.166/intel64
  Parallel I/O   : 
  openMP support : 
  GPU support    : 
 
 === Connectors / Fallbacks === 
  LINALG flavor  : mkl
  FFT flavor     : dfti
  HDF5           : yes
  NetCDF         : yes
  NetCDF Fortran : yes
  LibXC          : yes
  Wannier90      : no
 
 === Experimental features === 
  Exports             : 
  GW double-precision : 
 
 ++++++++++++++++++++++++++++++++++++++++++++++++++++++++++++++++++++++++++++++
 

 ++++++++++++++++++++++++++++++++++++++++++++++++++++++++++++++++++++++++++++++
 Default optimizations:
   -O3


 Optimizations for 43_ptgroups:
   -O0


 ++++++++++++++++++++++++++++++++++++++++++++++++++++++++++++++++++++++++++++++


 ++++++++++++++++++++++++++++++++++++++++++++++++++++++++++++++++++++++++++++++
 CPP options activated during the build:

                  CC_INTEL                   CXX_GNU                  FC_INTEL
 
                 HAVE_DFTI HAVE_FC_ALLOCATABLE_DT...             HAVE_FC_ASYNC
 
  HAVE_FC_COMMAND_ARGUMENT      HAVE_FC_COMMAND_LINE        HAVE_FC_CONTIGUOUS
 
           HAVE_FC_CPUTIME              HAVE_FC_EXIT             HAVE_FC_FLUSH
 
             HAVE_FC_GAMMA   HAVE_FC_IEEE_ARITHMETIC   HAVE_FC_IEEE_EXCEPTIONS
 
             HAVE_FC_IOMSG     HAVE_FC_ISO_C_BINDING  HAVE_FC_ISO_FORTRAN_2008
 
        HAVE_FC_LONG_LINES        HAVE_FC_MOVE_ALLOC  HAVE_FC_ON_THE_FLY_SHAPE
 
           HAVE_FC_PRIVATE         HAVE_FC_PROTECTED           HAVE_FC_SHIFTLR
 
         HAVE_FC_STREAM_IO                 HAVE_HDF5             HAVE_HDF5_MPI
 
        HAVE_LIBPAW_ABINIT      HAVE_LIBTETRA_ABINIT                HAVE_LIBXC
 
         HAVE_LINALG_AXPBY        HAVE_LINALG_GEMM3M         HAVE_LINALG_GEMMT
 
  HAVE_LINALG_MKL_IMATCOPY   HAVE_LINALG_MKL_OMATADD  HAVE_LINALG_MKL_OMATCOPY
 
   HAVE_LINALG_MKL_THREADS     HAVE_LINALG_SCALAPACK                  HAVE_MPI
 
                 HAVE_MPI2       HAVE_MPI_IALLGATHER       HAVE_MPI_IALLREDUCE
 
        HAVE_MPI_IALLTOALL       HAVE_MPI_IALLTOALLV           HAVE_MPI_IBCAST
 
         HAVE_MPI_IGATHERV        HAVE_MPI_INTEGER16               HAVE_MPI_IO
 
 HAVE_MPI_TYPE_CREATE_S...               HAVE_NETCDF       HAVE_NETCDF_FORTRAN
 
   HAVE_NETCDF_FORTRAN_MPI           HAVE_NETCDF_MPI             HAVE_OS_LINUX
 
         HAVE_TIMER_ABINIT                                                      
 ++++++++++++++++++++++++++++++++++++++++++++++++++++++++++++++++++++++++++++++

- input  file    -> mos2_k_draft.abi
- output file    -> mos2_k_draft.abo
- root for input  files -> mos2_k_drafti
- root for output files -> mos2_k_drafto
 
 Netcdf library supports MPI-IO
-instrng: 44 lines of input have been read from file mos2_k_draft.abi
 
 For atom type 1, psp file is ./persudo/Mo.psp8
 For atom type 2, psp file is ./persudo/S.psp8
  read the values zionpsp= 14.0 , pspcod=   8 , lmax=   2
  read the values zionpsp=  6.0 , pspcod=   8 , lmax=   2
 
 inpspheads: deduce mpsang = 3, n1xccc = 2501.

======================================================= 
 invars1m : enter jdtset= 11
 
 symlatt: the Bravais lattice is hP (primitive hexagonal)
  xred   is defined in input file
 ingeo: takes atomic coordinates from input array xred
 
 symlatt: the Bravais lattice is hP (primitive hexagonal)
 
 symlatt: the Bravais lattice is hP (primitive hexagonal)
 
--- !COMMENT
src_file: m_symfind.F90
src_line: 995
message: |
    The Bravais lattice determined only from the primitive
    vectors, bravais(1)=  6, is more symmetric
    than the real one, iholohedry=  1, obtained by taking into
    account the atomic positions. Start deforming the primitive vector set.
...
 
 
 symlatt: the Bravais lattice is oC (one-face-centered orthorhombic)
 
--- !COMMENT
src_file: m_symfind.F90
src_line: 1004
message: |
    The Bravais lattice determined from modified primitive
    vectors, bravais(1)=  3, has a lower symmetry than before,
    but is still more symmetric than the real one, iholohedry=  1
    obtained by taking into account the atomic positions.
...
 
 
 symlatt: the Bravais lattice is aP (primitive triclinic)
 symspgr: spgroup=   1  P1   (=C1^1)

======================================================= 
 invars1m : enter jdtset= 21
 
 symlatt: the Bravais lattice is hP (primitive hexagonal)
  xred   is defined in input file
 ingeo: takes atomic coordinates from input array xred
 
 symlatt: the Bravais lattice is hP (primitive hexagonal)
 
 symlatt: the Bravais lattice is hP (primitive hexagonal)
 
--- !COMMENT
src_file: m_symfind.F90
src_line: 995
message: |
    The Bravais lattice determined only from the primitive
    vectors, bravais(1)=  6, is more symmetric
    than the real one, iholohedry=  1, obtained by taking into
    account the atomic positions. Start deforming the primitive vector set.
...
 
 
 symlatt: the Bravais lattice is oC (one-face-centered orthorhombic)
 
--- !COMMENT
src_file: m_symfind.F90
src_line: 1004
message: |
    The Bravais lattice determined from modified primitive
    vectors, bravais(1)=  3, has a lower symmetry than before,
    but is still more symmetric than the real one, iholohedry=  1
    obtained by taking into account the atomic positions.
...
 
 
 symlatt: the Bravais lattice is aP (primitive triclinic)
 symspgr: spgroup=   1  P1   (=C1^1)

======================================================= 
 invars1m : enter jdtset= 31
 
 symlatt: the Bravais lattice is hP (primitive hexagonal)
  xred   is defined in input file
 ingeo: takes atomic coordinates from input array xred
 
 symlatt: the Bravais lattice is hP (primitive hexagonal)
 
 symlatt: the Bravais lattice is hP (primitive hexagonal)
 
--- !COMMENT
src_file: m_symfind.F90
src_line: 995
message: |
    The Bravais lattice determined only from the primitive
    vectors, bravais(1)=  6, is more symmetric
    than the real one, iholohedry=  1, obtained by taking into
    account the atomic positions. Start deforming the primitive vector set.
...
 
 
 symlatt: the Bravais lattice is oC (one-face-centered orthorhombic)
 
--- !COMMENT
src_file: m_symfind.F90
src_line: 1004
message: |
    The Bravais lattice determined from modified primitive
    vectors, bravais(1)=  3, has a lower symmetry than before,
    but is still more symmetric than the real one, iholohedry=  1
    obtained by taking into account the atomic positions.
...
 
 
 symlatt: the Bravais lattice is aP (primitive triclinic)
 symspgr: spgroup=   1  P1   (=C1^1)
 invars2: take the default value of fband=  1.25000000E-01
 invars2: take the default value of fband=  1.25000000E-01
 invars2: take the default value of fband=  1.25000000E-01
 LMac pawujat is:            0
 LMac pawujat is:            0
 LMac pawujat is:            0
 For input ecut=  2.500000E+01 best grid ngfft=      30      30     180
       max ecut=  2.798318E+01
 
 ==== FFT mesh ====
  FFT mesh divisions ........................    30   30  180
  Augmented FFT divisions ...................    31   31  180
  FFT algorithm .............................   512
  FFT cache size ............................    16
 getmpw: optimal value of mpw= 6951
 For input ecut=  2.500000E+01 best grid ngfft=      30      30     180
       max ecut=  2.798318E+01
 
 ==== FFT mesh ====
  FFT mesh divisions ........................    30   30  180
  Augmented FFT divisions ...................    31   31  180
  FFT algorithm .............................   512
  FFT cache size ............................    16
 getmpw: optimal value of mpw= 6951
 For input ecut=  2.500000E+01 best grid ngfft=      30      30     180
       max ecut=  2.798318E+01
 
 ==== FFT mesh ====
  FFT mesh divisions ........................    30   30  180
  Augmented FFT divisions ...................    31   31  180
  FFT algorithm .............................   512
  FFT cache size ............................    16
 getmpw: optimal value of mpw= 6951
 
 DATASET   11 : space group P1 (#  1); Bravais aP (primitive triclinic)
 
 getdim_nloc: deduce lmnmax  =  18, lnmax  =   6,
                      lmnmaxso=  18, lnmaxso=   6.
memory: analysis of memory needs
================================================================================
 Values of the parameters that define the memory need for DATASET 11.
     intxc =       0    ionmov =       2      iscf =       7    lmnmax =       6
     lnmax =       6     mgfft =     180  mpssoang =       3    mqgrid =    8507
     natom =       3  nloc_mem =       1    nspden =       1   nspinor =       1
    nsppol =       1      nsym =       1    n1xccc =    2501    ntypat =       2
    occopt =       1   xclevel =       2
-    mband =          14        mffmem =           1         mkmem =          14
       mpw =        6951          nfft =      162000          nkpt =          14
================================================================================
P This job should need less than                      72.746 Mbytes of memory.
  Rough estimation (10% accuracy) of disk space for files :
_ WF disk file :     20.791 Mbytes ; DEN or POT disk file :      1.238 Mbytes.
================================================================================
 
 Biggest array : cg(disk), with     20.7905 MBytes.
 memana : allocated an array of     20.791 Mbytes, for testing purposes.
 memana: allocated      72.746Mbytes, for testing purposes. 
 The job will continue.
 
 DATASET   21 : space group P1 (#  1); Bravais aP (primitive triclinic)
 
 getdim_nloc: deduce lmnmax  =  18, lnmax  =   6,
                      lmnmaxso=  18, lnmaxso=   6.
memory: analysis of memory needs
================================================================================
 Values of the parameters that define the memory need for DATASET 21.
     intxc =       0    ionmov =       2      iscf =       7    lmnmax =       6
     lnmax =       6     mgfft =     180  mpssoang =       3    mqgrid =    8507
     natom =       3  nloc_mem =       1    nspden =       1   nspinor =       1
    nsppol =       1      nsym =       1    n1xccc =    2501    ntypat =       2
    occopt =       1   xclevel =       2
-    mband =          14        mffmem =           1         mkmem =          14
       mpw =        6951          nfft =      162000          nkpt =          14
================================================================================
P This job should need less than                      72.746 Mbytes of memory.
  Rough estimation (10% accuracy) of disk space for files :
_ WF disk file :     20.791 Mbytes ; DEN or POT disk file :      1.238 Mbytes.
================================================================================
 
 Biggest array : cg(disk), with     20.7905 MBytes.
 memana : allocated an array of     20.791 Mbytes, for testing purposes.
 memana: allocated      72.746Mbytes, for testing purposes. 
 The job will continue.
 
 DATASET   31 : space group P1 (#  1); Bravais aP (primitive triclinic)
 
 getdim_nloc: deduce lmnmax  =  18, lnmax  =   6,
                      lmnmaxso=  18, lnmaxso=   6.
memory: analysis of memory needs
================================================================================
 Values of the parameters that define the memory need for DATASET 31.
     intxc =       0    ionmov =       2      iscf =       7    lmnmax =       6
     lnmax =       6     mgfft =     180  mpssoang =       3    mqgrid =    8507
     natom =       3  nloc_mem =       1    nspden =       1   nspinor =       1
    nsppol =       1      nsym =       1    n1xccc =    2501    ntypat =       2
    occopt =       1   xclevel =       2
-    mband =          14        mffmem =           1         mkmem =          14
       mpw =        6951          nfft =      162000          nkpt =          14
================================================================================
P This job should need less than                      72.746 Mbytes of memory.
  Rough estimation (10% accuracy) of disk space for files :
_ WF disk file :     20.791 Mbytes ; DEN or POT disk file :      1.238 Mbytes.
================================================================================
 
 Biggest array : cg(disk), with     20.7905 MBytes.
 memana : allocated an array of     20.791 Mbytes, for testing purposes.
 memana: allocated      72.746Mbytes, for testing purposes. 
 The job will continue.
--------------------------------------------------------------------------------
------------- Echo of variables that govern the present computation ------------
--------------------------------------------------------------------------------
-
- outvars: echo of selected default values                                      
-   iomode0 =  0 , fftalg0 =512 , wfoptalg0 =  0
-
- outvars: echo of global parameters not present in the input file              
-  max_nthreads =    0
-
 -outvars: echo values of preprocessed input variables --------
 
 These variables are accessible in NetCDF format (mos2_k_drafto_OUT.nc)

            acell      5.9526373186E+00  5.9526373186E+00  3.7794522658E+01 Bohr
              amu      9.59400000E+01  3.20660000E+01
      chksymbreak           0
             ecut      2.50000000E+01 Hartree
-          fftalg         512
           getwfk          -1
           ionmov           2
           istwfk        2    0    0    0    0    0    0    0    0    0
                         0    0    0    0
              ixc          11
           jdtset       11   21   31
              kpt      0.00000000E+00  0.00000000E+00  0.00000000E+00
                       1.11111111E-01  1.11111111E-01  0.00000000E+00
                       3.33333333E-01  0.00000000E+00  0.00000000E+00
                       0.00000000E+00  3.33333333E-01  0.00000000E+00
                       2.22222222E-01  2.22222222E-01  0.00000000E+00
                       4.44444444E-01  1.11111111E-01  0.00000000E+00
                       1.11111111E-01  4.44444444E-01  0.00000000E+00
                       3.33333333E-01  3.33333333E-01  0.00000000E+00
                      -4.44444444E-01  2.22222222E-01  0.00000000E+00
                      -2.22222222E-01  1.11111111E-01  0.00000000E+00
                       2.22222222E-01 -4.44444444E-01  0.00000000E+00
                       4.44444444E-01  4.44444444E-01  0.00000000E+00
                      -3.33333333E-01  3.33333333E-01  0.00000000E+00
                      -1.11111111E-01  2.22222222E-01  0.00000000E+00
         kptrlatt        3   -3    0      3    6    0      0    0    1
          kptrlen      3.09308108E+01
P           mkmem          14
            natom           3
            nband          14
           ndtset           3
            ngfft          30      30     180
             nkpt          14
            nstep          10
             nsym           1
            ntime          10
           ntypat           2
              occ      2.000000  2.000000  2.000000  2.000000  2.000000  2.000000
                       2.000000  2.000000  2.000000  2.000000  2.000000  2.000000
                       2.000000  0.000000
        optforces           1
            rprim      5.0000000000E-01 -8.6602540378E-01  0.0000000000E+00
                       5.0000000000E-01  8.6602540378E-01  0.0000000000E+00
                       0.0000000000E+00  0.0000000000E+00  1.0000000000E+00
          spgroup           1
           toldff      5.00000000E-05
           tolmxf      5.00000000E-04
            typat      1  2  2
              wtk        0.03704    0.07407    0.07407    0.07407    0.07407    0.07407
                         0.07407    0.07407    0.07407    0.07407    0.07407    0.07407
                         0.07407    0.07407
           xangst      1.5750000000E+00  9.0932667397E-01  0.0000000000E+00
                       1.5750000000E+00 -9.0932667397E-01 -1.8388847000E+00
                       1.5750000000E+00 -9.0932667397E-01  1.8388847000E+00
            xcart      2.9763186593E+00  1.7183783791E+00  0.0000000000E+00
                       2.9763186593E+00 -1.7183783791E+00 -3.4749884730E+00
                       2.9763186593E+00 -1.7183783791E+00  3.4749884730E+00
             xred      3.3333333333E-01  6.6666666667E-01  0.0000000000E+00
                       6.6666666667E-01  3.3333333333E-01 -9.1944235000E-02
                       6.6666666667E-01  3.3333333333E-01  9.1944235000E-02
            znucl       42.00000   16.00000
 
================================================================================
 
 chkinp: Checking input parameters for consistency, jdtset=  11.
 
 chkinp: Checking input parameters for consistency, jdtset=  21.
 
 chkinp: Checking input parameters for consistency, jdtset=  31.
 DATA TYPE INFORMATION: 
 REAL:      Data type name: REAL(DP) 
            Kind value:      8
            Precision:      15
            Smallest nonnegligible quantity relative to 1: 0.22204460E-015
            Smallest positive number:                      0.22250739E-307
            Largest representable number:                  0.17976931E+309
 INTEGER:   Data type name: INTEGER(default) 
            Kind value: 4
            Bit size:   32
            Largest representable number: 2147483647
 LOGICAL:   Data type name: LOGICAL 
            Kind value: 4
 CHARACTER: Data type name: CHARACTER             Kind value: 1

  ==== OpenMP parallelism is OFF ====
 
  ==== Using MPI-2 specifications ==== 
  MPI-IO support is ON
  xmpi_tag_ub ................   1073741823
  xmpi_bsize_ch ..............            1
  xmpi_bsize_int .............            4
  xmpi_bsize_sp ..............            4
  xmpi_bsize_dp ..............            8
  xmpi_bsize_spc .............            8
  xmpi_bsize_dpc .............           16
  xmpio_bsize_frm ............            4
  xmpi_address_kind ..........            8
  xmpi_offset_kind ...........            8
  MPI_WTICK ..................   4.009462585290348E-010
 
================================================================================
== DATASET 11 ==================================================================
-   mpi_nproc: 1, omp_nthreads: -1 (-1 if OMP is not activated)
 
 
--- !COMMENT
src_file: m_xgScalapack.F90
src_line: 235
message: |
    xgScalapack in auto mode
...
 
 
 getdim_nloc: deduce lmnmax  =  18, lnmax  =   6,
                      lmnmaxso=  18, lnmaxso=   6.
 Exchange-correlation functional for the present dataset will be:
  GGA: Perdew-Burke-Ernzerhof functional - ixc=11
 Citation for XC functional:
  J.P.Perdew, K.Burke, M.Ernzerhof, PRL 77, 3865 (1996)
 
 Unit cell volume ucvol=  1.1597873E+03 bohr^3
 Angles (23,13,12)=  9.00000000E+01  9.00000000E+01  1.20000000E+02 degrees
 
 getcut: wavevector=  0.0000  0.0000  0.0000  ngfft=  30  30 180
         ecut(hartree)=     25.000   => boxcut(ratio)=   2.11597
- pspini: atom type   1  psp file is ./persudo/Mo.psp8
- pspatm: opening atomic psp file    ./persudo/Mo.psp8
- Mo    ONCVPSP-3.2.3.1  r_core=   1.45541   1.45541   1.35488
- 42.00000  14.00000    170510                znucl, zion, pspdat
    8   11    2    4       600   0.00000      pspcod,pspxc,lmax,lloc,mmax,r2well
    5.99000000000000    3.00000000000000    0.00000000000000   rchrg,fchrg,qchrg
     nproj     2     2     2
     extension_switch     1
  valence charge (before rescaling) integrates to:    13.9106199290666     
  pspatm : epsatm=   15.95693586
         --- l  ekb(1:nproj) -->
             0   13.833287    1.350687
             1    8.015347    1.134034
             2    2.765699    0.969071
 pspatm: atomic psp has been read  and splines computed
 
- pspini: atom type   2  psp file is ./persudo/S.psp8
- pspatm: opening atomic psp file    ./persudo/S.psp8
- S     ONCVPSP-4.0.1  r_core=   1.45687   1.45687   1.45687
- 16.00000   6.00000    220131                znucl, zion, pspdat
    8   11    2    4       600   0.00000      pspcod,pspxc,lmax,lloc,mmax,r2well
    5.99000000000000    6.00000000000000    0.00000000000000   rchrg,fchrg,qchrg
     nproj     2     2     2
     extension_switch     1
  valence charge (before rescaling) integrates to:    5.98952054080779     
  pspatm : epsatm=    9.04179351
         --- l  ekb(1:nproj) -->
             0    6.774234    0.542270
             1    3.022426    0.737017
             2   -5.033160   -1.531047
 pspatm: atomic psp has been read  and splines computed
 
   8.85053595E+02                                ecore*ucvol(ha*bohr**3)
 ==== Info on pseudopotentials ====
  Norm-conserving pseudopotentials
  Number of pseudopotentials ..    2
  Number of types of atoms   ..    2
  Scalar calculation (no spin-orbit term)
  Nonlocal part applied using Legendre polynomials
  Max number of non-local projectors over l and type   2
  Highest angular momentum +1 .......   3
  Max number of (l,n)   components ..   6
  Max number of (l,m,n) components ..   6
 
 Pseudo-Core Charge Info: 
   Number of radial points for pseudo-core charge .. 2501
   XC core-correction treatment (optnlxccc) ........    1
   Radius for pseudo-core charge for each type ..... 
 
  - Atom type    1 has pseudo-core radius ..  5.9900
  - Atom type    2 has pseudo-core radius ..  5.9900
 
 Info on the Q-grid used for form factors in spline form: 
   Number of q-points for radial functions ffspl ..   8507
   Number of q-points for vlspl ...................   8507
   vloc is computed in Reciprocal Space
   model core charge treated in real-space
 
  XC functional for type 1 is 11
  Pseudo valence available: yes
  XC functional for type 2 is 11
  Pseudo valence available: yes
 
 wfconv:    14 bands initialized randomly with npw=  3481, for ikpt=     1
 wfconv:    14 bands initialized randomly with npw=  6951, for ikpt=     2
 wfconv:    14 bands initialized randomly with npw=  6906, for ikpt=     3
 wfconv:    14 bands initialized randomly with npw=  6906, for ikpt=     4
 wfconv:    14 bands initialized randomly with npw=  6915, for ikpt=     5
 wfconv:    14 bands initialized randomly with npw=  6924, for ikpt=     6
 wfconv:    14 bands initialized randomly with npw=  6924, for ikpt=     7
 wfconv:    14 bands initialized randomly with npw=  6933, for ikpt=     8
 wfconv:    14 bands initialized randomly with npw=  6915, for ikpt=     9
 wfconv:    14 bands initialized randomly with npw=  6951, for ikpt=    10
 wfconv:    14 bands initialized randomly with npw=  6915, for ikpt=    11
 wfconv:    14 bands initialized randomly with npw=  6924, for ikpt=    12
 wfconv:    14 bands initialized randomly with npw=  6906, for ikpt=    13
 wfconv:    14 bands initialized randomly with npw=  6951, for ikpt=    14
_setup2: Arith. and geom. avg. npw (full set) are    6926.037    6926.015
 initro: for itypat=  1, take pseudo charge density from pp file
 initro: for itypat=  2, take pseudo charge density from pp file
 
================================================================================
 
=== [ionmov= 2] Broyden-Fletcher-Goldfard-Shanno method (forces)            
================================================================================
 
--- Iteration: ( 1/10) Internal Cycle: (1/1)
--------------------------------------------------------------------------------
 
 Cartesian coordinates (xcart) [bohr]
  2.97631865929489E+00  1.71837837912920E+00  0.00000000000000E+00
  2.97631865929489E+00 -1.71837837912920E+00 -3.47498847295358E+00
  2.97631865929489E+00 -1.71837837912920E+00  3.47498847295358E+00
 Reduced coordinates (xred)
  3.33333333333333E-01  6.66666666666667E-01  0.00000000000000E+00
  6.66666666666667E-01  3.33333333333333E-01 -9.19442350000000E-02
  6.66666666666667E-01  3.33333333333333E-01  9.19442350000000E-02
 
---SELF-CONSISTENT-FIELD CONVERGENCE--------------------------------------------
 
 getcut: wavevector=  0.0000  0.0000  0.0000  ngfft=  30  30 180
         ecut(hartree)=     25.000   => boxcut(ratio)=   2.11597
 
 1/G**2 cut-off applied in the following step : cutoff-mode = CRYSTAL
 
 1/G**2 cut-off applied in the following step : cutoff-mode = CRYSTAL
 
 1/G**2 cut-off applied in the following step : cutoff-mode = CRYSTAL
 
--- !WARNING
src_file: m_drivexc.F90
src_line: 783
message: |
    Density went too small (lower than xc_denpos) at 28031 points
    and was set to xc_denpos =   1.00E-14. Lowest was  -0.38E-05.
    This might be due to (1) too low boxcut or (2) too low ecut for
     pseudopotential core charge, or (3) too low ecut for estimated initial density.
     Possible workarounds : increase ecut, or define the input variable densty,
     with a value larger than the guess for the decay length, or initialize your,
     density with a preliminary LDA or GGA-PBE if you are using a more exotic xc functional.
...
 
 
 ITER STEP NUMBER     1
 Max number of non-self-consistent loops: 2
 Total charge density [el/Bohr^3]
)     Maximum=    8.5239E-01  at reduced coord.    0.3333    0.6667    0.0222
)     Minimum=    5.4620E-05  at reduced coord.    0.7333    0.7000    0.5389
   Integrated=    2.6000E+01
 
 1/G**2 cut-off applied in the following step : cutoff-mode = CRYSTAL
 ETOT  1  -91.469952937278    -9.147E+01 8.424E-02 9.513E+03 7.976E-02 7.976E-02
 scprqt: <Vxc>= -1.7851656E-01 hartree
 
 Simple mixing update:
  residual square of the potential:    608.128904615227
{SCF_istep: 1 , Vnl|psi>: 2142 , wall_time: '  7.01 [s] '} <<< TIME
 
 ITER STEP NUMBER     2
 Max number of non-self-consistent loops: 2
 Total charge density [el/Bohr^3]
)     Maximum=    1.2218E+00  at reduced coord.    0.5000    0.7667    0.0000
)     Minimum=    5.3906E-07  at reduced coord.    0.0667    0.2000    0.5111
   Integrated=    2.6000E+01
 ETOT  2  -86.122484483789     5.347E+00 2.926E-02 9.248E+04 1.092E+00 1.012E+00
 scprqt: <Vxc>= -1.4682143E-01 hartree
 
 Pulay update with  1 previous iterations:
 mixing of old trial potential: alpha(m:m-4)=  0.251      0.749
{SCF_istep: 2 , Vnl|psi>: 2134 , wall_time: '  4.79 [s] '} <<< TIME
 
 ITER STEP NUMBER     3
 Total charge density [el/Bohr^3]
)     Maximum=    9.4336E-01  at reduced coord.    0.2333    0.7333    0.0000
)     Minimum=    2.5455E-07  at reduced coord.    0.7333    0.6333    0.4500
   Integrated=    2.6000E+01
 ETOT  3  -92.223654012982    -6.101E+00 3.774E-02 1.851E+03 8.630E-01 1.500E-01
 scprqt: <Vxc>= -1.5360618E-01 hartree
 
 Pulay update with  2 previous iterations:
 mixing of old trial potential: alpha(m:m-4)=  0.292      0.157      0.552
{SCF_istep: 3 , Vnl|psi>: 1120 , wall_time: '  2.56 [s] '} <<< TIME
 
 ITER STEP NUMBER     4
 Total charge density [el/Bohr^3]
)     Maximum=    9.2857E-01  at reduced coord.    0.2667    0.7667    0.0000
)     Minimum=    4.1933E-08  at reduced coord.    0.7000    0.3000    0.4889
   Integrated=    2.6000E+01
 ETOT  4  -92.297705555808    -7.405E-02 4.769E-03 8.644E+02 2.853E-02 1.219E-01
 scprqt: <Vxc>= -1.5114410E-01 hartree
 
 Pulay update with  3 previous iterations:
 mixing of old trial potential: alpha(m:m-4)=  0.370      0.143      0.965E-01  0.390
{SCF_istep: 4 , Vnl|psi>: 1162 , wall_time: '  2.63 [s] '} <<< TIME
 
 ITER STEP NUMBER     5
 Total charge density [el/Bohr^3]
)     Maximum=    9.2140E-01  at reduced coord.    0.2333    0.7333    0.0000
)     Minimum=    2.0109E-08  at reduced coord.    0.3333    0.6667    0.5778
   Integrated=    2.6000E+01
 ETOT  5  -92.315452542933    -1.775E-02 1.074E-03 4.552E+02 1.813E-02 1.038E-01
 scprqt: <Vxc>= -1.5073444E-01 hartree
 
 Pulay update with  4 previous iterations:
 mixing of old trial potential: alpha(m:m-4)=  0.556      0.822E-01  0.440E-01  0.590E-01  0.259
{SCF_istep: 5 , Vnl|psi>: 1132 , wall_time: '  2.51 [s] '} <<< TIME
 
 ITER STEP NUMBER     6
 Total charge density [el/Bohr^3]
)     Maximum=    9.2101E-01  at reduced coord.    0.2333    0.7333    0.0000
)     Minimum=    1.4965E-08  at reduced coord.    0.3333    0.6667    0.4222
   Integrated=    2.6000E+01
 ETOT  6  -92.320294535405    -4.842E-03 3.301E-04 3.093E+02 1.012E-02 9.383E-02
 scprqt: <Vxc>= -1.5059722E-01 hartree
 
 Pulay update with  5 previous iterations:
 mixing of old trial potential: alpha(m:m-4)=  0.737      0.134     -0.517E-01 -0.140E-01  0.337E-01
{SCF_istep: 6 , Vnl|psi>: 1139 , wall_time: '  2.54 [s] '} <<< TIME
 
 ITER STEP NUMBER     7
 Total charge density [el/Bohr^3]
)     Maximum=    9.1922E-01  at reduced coord.    0.3333    0.6667    0.9778
)     Minimum=    1.3958E-08  at reduced coord.    0.3333    0.6667    0.5778
   Integrated=    2.6000E+01
 ETOT  7  -92.323992490460    -3.698E-03 5.031E-04 1.942E+02 8.668E-03 8.516E-02
 scprqt: <Vxc>= -1.5072118E-01 hartree
 
 Pulay update with  6 previous iterations:
 mixing of old trial potential: alpha(m:m-4)=  0.724      0.378     -0.344E-01 -0.111     -0.529E-01
{SCF_istep: 7 , Vnl|psi>: 1162 , wall_time: '  2.65 [s] '} <<< TIME
 
 ITER STEP NUMBER     8
 Total charge density [el/Bohr^3]
)     Maximum=    9.1874E-01  at reduced coord.    0.3333    0.6667    0.9778
)     Minimum=    1.3954E-08  at reduced coord.    0.3333    0.6667    0.4222
   Integrated=    2.6000E+01
 ETOT  8  -92.325888863470    -1.896E-03 1.977E-04 1.232E+02 6.090E-03 7.907E-02
 scprqt: <Vxc>= -1.5081562E-01 hartree
 
 Pulay update with  7 previous iterations:
 mixing of old trial potential: alpha(m:m-4)=  0.596      0.381      0.182     -0.232E-01 -0.112
{SCF_istep: 8 , Vnl|psi>: 1162 , wall_time: '  2.62 [s] '} <<< TIME
 
 ITER STEP NUMBER     9
 Total charge density [el/Bohr^3]
)     Maximum=    9.1821E-01  at reduced coord.    0.3333    0.6667    0.9778
)     Minimum=    1.3757E-08  at reduced coord.    0.3333    0.6667    0.5778
   Integrated=    2.6000E+01
 ETOT  9  -92.326877204881    -9.883E-04 2.709E-04 8.196E+01 4.244E-03 7.483E-02
 scprqt: <Vxc>= -1.5091705E-01 hartree
 
 Pulay update with  7 previous iterations:
 mixing of old trial potential: alpha(m:m-4)=  0.499      0.355      0.145      0.165      0.885E-02
{SCF_istep: 9 , Vnl|psi>: 1162 , wall_time: '  2.58 [s] '} <<< TIME
 
 ITER STEP NUMBER    10
 Total charge density [el/Bohr^3]
)     Maximum=    9.1802E-01  at reduced coord.    0.3333    0.6667    0.0222
)     Minimum=    1.3852E-08  at reduced coord.    0.3333    0.6667    0.4222
   Integrated=    2.6000E+01
 ETOT 10  -92.327457495570    -5.803E-04 1.548E-04 5.369E+01 3.868E-03 7.097E-02
 scprqt: <Vxc>= -1.5097924E-01 hartree
 
 Pulay update with  7 previous iterations:
 mixing of old trial potential: alpha(m:m-4)=  0.615      0.388     -0.771E-01  0.299E-01  0.126
 
 -------------------------------------------------------------------------------------------------
 Ekinetic   = :     2.958377E+01 Ha ,    8.050154E+02 eV
 Evext_l    = :    -5.738637E+02 Ha ,   -1.561563E+04 eV
 Evext_nl   = :     1.157269E+01 Ha ,    3.149089E+02 eV
 Epsp_core  = :     7.631172E-01 Ha ,    2.076547E+01 eV
 Ehartree   = :     2.664932E+02 Ha ,    7.251650E+03 eV
 Exc_ks     = :    -1.644979E+01 Ha ,   -4.476215E+02 eV
 Enn        = :     1.895732E+02 Ha ,    5.158549E+03 eV
 -------------------------------------------------------------------------------------------------
 Etot       = :    -9.232746E+01 Ha ,   -2.512358E+03 eV
 -------------------------------------------------------------------------------------------------
 
 Cartesian components of stress tensor (hartree/bohr^3)
  sigma(1 1)=  1.47777792E-04  sigma(3 2)=  7.02190613E-08
  sigma(2 2)=  1.48933121E-04  sigma(3 1)= -5.58245560E-08
  sigma(3 3)=  4.23441207E-04  sigma(2 1)= -3.83809998E-07
 

--- !ScfConvergenceWarning
message: |
    nstep 10 was not enough SCF cycles to converge.
...
 
 scprqt:  WARNING -
  nstep=   10 was not enough SCF cycles to converge;
  maximum force difference=  3.868E-03 exceeds toldff=  5.000E-05
 
 
 fftdatar_write: About to write data to: mos2_k_drafto_DS11_TIM1_DEN with iomode: IO_MODE_FORTRAN
 IO operation , wall:  0.04 [s] , cpu:  0.00 [s] <<< TIME
- Creating HDf5 file with MPI-IO support: mos2_k_drafto_DS11_GSR.nc
 Integrated electronic density in atomic spheres:
 ------------------------------------------------
 Atom  Sphere_radius  Integrated_density
    1        2.00000         10.41979836
    2        2.00000          3.81717058
    3        2.00000          3.81704798
 Write iteration in HIST netCDF file (also create it)
 
---OUTPUT-----------------------------------------------------------------------
 
 Cartesian coordinates (xcart) [bohr]
  2.97631865929489E+00  1.71837837912920E+00  0.00000000000000E+00
  2.97631865929489E+00 -1.71837837912920E+00 -3.47498847295358E+00
  2.97631865929489E+00 -1.71837837912920E+00  3.47498847295358E+00
 Reduced coordinates (xred)
  3.33333333333333E-01  6.66666666666667E-01  0.00000000000000E+00
  6.66666666666667E-01  3.33333333333333E-01 -9.19442350000000E-02
  6.66666666666667E-01  3.33333333333333E-01  9.19442350000000E-02
 Cartesian forces (fcart) [Ha/bohr]; max,rms= 7.09698E-02 3.34377E-02 (free atoms)
 -2.98921743384108E-05  3.42533415804876E-05  7.56929329085236E-05
  1.62766519371154E-05 -3.34674860735955E-05  7.08941535283085E-02
  1.36155224012953E-05 -7.85855506892074E-07 -7.09698464612170E-02
 Gradient of E wrt nuclear positions in reduced coordinates (gred)
  2.65549241004819E-04 -8.76119685042037E-05 -2.86077826783993E-03
 -2.20973916289308E-04  1.24084910546738E-04 -2.67941069182503E+00
 -4.45753247155117E-05 -3.64729420425339E-05  2.68227147009287E+00
 Total energy (etotal) [Ha]= -9.23274574955698E+01
 fconv : at Broyd/MD step   1, gradients have not converged yet. 
  max grad (force/stress) = 7.0970E-02 > tolmxf= 5.0000E-04 ha/bohr (free atoms)
 
Inverse hessian has been initialized.
 EXIT:           1           1
 {mover_itime: 1 , wall_time: ' 35.01 [s] '} <<< TIME
 
--- Iteration: ( 2/10) Internal Cycle: (1/1)
--------------------------------------------------------------------------------
 
 Cartesian coordinates (xcart) [bohr]
  2.97628876712055E+00  1.71841263247078E+00  7.56929329085275E-05
  2.97633493594683E+00 -1.71841184661528E+00 -3.40409431942527E+00
  2.97633227481729E+00 -1.71837916498471E+00  3.40401862649236E+00
 Reduced coordinates (xred)
  3.33324989409848E-01  6.66664967252136E-01  2.00274874732624E-06
  6.66672647060251E-01  3.33332821659265E-01 -9.00684564865269E-02
  6.66669030196567E-01  3.33335544421933E-01  9.00664537377796E-02
 
---SELF-CONSISTENT-FIELD CONVERGENCE--------------------------------------------
 
 getcut: wavevector=  0.0000  0.0000  0.0000  ngfft=  30  30 180
         ecut(hartree)=     25.000   => boxcut(ratio)=   2.11597
 
 ITER STEP NUMBER     1
 Max number of non-self-consistent loops: 2
 Total charge density [el/Bohr^3]
)     Maximum=    9.1657E-01  at reduced coord.    0.3333    0.6667    0.0222
)     Minimum=    1.4200E-08  at reduced coord.    0.3333    0.6667    0.5778
   Integrated=    2.6000E+01
 ETOT  1  -92.336331824137    -9.234E+01 3.118E-04 8.781E+01 6.459E-03 6.552E-02
 scprqt: <Vxc>= -1.5070535E-01 hartree
 
 Simple mixing update:
  residual square of the potential:    85.5143715088942
{SCF_istep: 1 , Vnl|psi>: 3434 , wall_time: '  6.93 [s] '} <<< TIME
 
 ITER STEP NUMBER     2
 Max number of non-self-consistent loops: 2
 Total charge density [el/Bohr^3]
)     Maximum=    9.2140E-01  at reduced coord.    0.2333    0.7333    0.0000
)     Minimum=    1.4107E-08  at reduced coord.    0.3333    0.6667    0.5778
   Integrated=    2.6000E+01
 ETOT  2  -92.335151207702     1.181E-03 8.496E-05 2.289E+01 4.431E-03 6.894E-02
 scprqt: <Vxc>= -1.5050350E-01 hartree
 
 Pulay update with  1 previous iterations:
 mixing of old trial potential: alpha(m:m-4)=  0.974      0.257E-01
{SCF_istep: 2 , Vnl|psi>: 2108 , wall_time: '  4.65 [s] '} <<< TIME
 
 ITER STEP NUMBER     3
 Total charge density [el/Bohr^3]
)     Maximum=    9.1112E-01  at reduced coord.    0.3333    0.6667    0.0222
)     Minimum=    1.3969E-08  at reduced coord.    0.3333    0.6667    0.5778
   Integrated=    2.6000E+01
 ETOT  3  -92.327243537324     7.908E-03 6.002E-05 1.395E+02 3.238E-02 3.708E-02
 scprqt: <Vxc>= -1.5078027E-01 hartree
 
 Pulay update with  2 previous iterations:
 mixing of old trial potential: alpha(m:m-4)=  0.316      0.683      0.870E-03
{SCF_istep: 3 , Vnl|psi>: 1124 , wall_time: '  2.50 [s] '} <<< TIME
 
 ITER STEP NUMBER     4
 Total charge density [el/Bohr^3]
)     Maximum=    9.1865E-01  at reduced coord.    0.3333    0.6667    0.0222
)     Minimum=    1.4573E-08  at reduced coord.    0.3333    0.6667    0.4222
   Integrated=    2.6000E+01
 ETOT  4  -92.336791609123    -9.548E-03 8.635E-05 1.218E+00 2.483E-02 6.173E-02
 scprqt: <Vxc>= -1.5064090E-01 hartree
 
 Pulay update with  3 previous iterations:
 mixing of old trial potential: alpha(m:m-4)=  0.266      0.233      0.500      0.595E-03
{SCF_istep: 4 , Vnl|psi>: 1128 , wall_time: '  2.56 [s] '} <<< TIME
 
 ITER STEP NUMBER     5
 Total charge density [el/Bohr^3]
)     Maximum=    9.1827E-01  at reduced coord.    0.3333    0.6667    0.0222
)     Minimum=    1.4037E-08  at reduced coord.    0.3333    0.6667    0.4222
   Integrated=    2.6000E+01
 ETOT  5  -92.336814152771    -2.254E-05 2.489E-05 2.875E-01 1.100E-03 6.063E-02
 scprqt: <Vxc>= -1.5059909E-01 hartree
 
 Pulay update with  4 previous iterations:
 mixing of old trial potential: alpha(m:m-4)=  0.465      0.206      0.114      0.216     -0.533E-03
{SCF_istep: 5 , Vnl|psi>: 1162 , wall_time: '  2.70 [s] '} <<< TIME
 
 ITER STEP NUMBER     6
 Total charge density [el/Bohr^3]
)     Maximum=    9.1828E-01  at reduced coord.    0.3333    0.6667    0.9778
)     Minimum=    1.4056E-08  at reduced coord.    0.3333    0.6667    0.5778
   Integrated=    2.6000E+01
 ETOT  6  -92.336815265122    -1.112E-06 1.053E-05 1.746E-01 1.866E-04 6.044E-02
 scprqt: <Vxc>= -1.5060293E-01 hartree
 
 Pulay update with  5 previous iterations:
 mixing of old trial potential: alpha(m:m-4)=  0.348      0.201      0.156      0.101      0.194
{SCF_istep: 6 , Vnl|psi>: 1162 , wall_time: '  2.70 [s] '} <<< TIME
 
 ITER STEP NUMBER     7
 Total charge density [el/Bohr^3]
)     Maximum=    9.1821E-01  at reduced coord.    0.3333    0.6667    0.9778
)     Minimum=    1.4051E-08  at reduced coord.    0.3333    0.6667    0.5778
   Integrated=    2.6000E+01
 ETOT  7  -92.336817527902    -2.263E-06 1.175E-05 8.820E-02 2.097E-04 6.023E-02
 scprqt: <Vxc>= -1.5060196E-01 hartree
 
 Pulay update with  6 previous iterations:
 mixing of old trial potential: alpha(m:m-4)=  0.464      0.959E-01  0.804E-01  0.139      0.765E-01
{SCF_istep: 7 , Vnl|psi>: 1129 , wall_time: '  2.61 [s] '} <<< TIME
 
 ITER STEP NUMBER     8
 Total charge density [el/Bohr^3]
)     Maximum=    9.1821E-01  at reduced coord.    0.3333    0.6667    0.9778
)     Minimum=    1.4050E-08  at reduced coord.    0.3333    0.6667    0.5778
   Integrated=    2.6000E+01
 ETOT  8  -92.336817659000    -1.311E-07 5.438E-06 6.270E-02 4.069E-05 6.019E-02
 scprqt: <Vxc>= -1.5060165E-01 hartree
 
 Pulay update with  7 previous iterations:
 mixing of old trial potential: alpha(m:m-4)=   2.17     -0.844     -0.406     -0.452E-01  0.791E-01
{SCF_istep: 8 , Vnl|psi>: 1139 , wall_time: '  2.53 [s] '} <<< TIME
 
 ITER STEP NUMBER     9
 Total charge density [el/Bohr^3]
)     Maximum=    9.1818E-01  at reduced coord.    0.3333    0.6667    0.9778
)     Minimum=    1.4051E-08  at reduced coord.    0.3333    0.6667    0.5778
   Integrated=    2.6000E+01
 ETOT  9  -92.336818249665    -5.907E-07 6.042E-06 2.493E-02 1.796E-04 6.001E-02
 scprqt: <Vxc>= -1.5059977E-01 hartree
 
 Pulay update with  7 previous iterations:
 mixing of old trial potential: alpha(m:m-4)=  0.751      0.864     -0.269     -0.261     -0.131
{SCF_istep: 9 , Vnl|psi>: 1132 , wall_time: '  2.57 [s] '} <<< TIME
 
 ITER STEP NUMBER    10
 Total charge density [el/Bohr^3]
)     Maximum=    9.1816E-01  at reduced coord.    0.3333    0.6667    0.9778
)     Minimum=    1.4051E-08  at reduced coord.    0.3333    0.6667    0.5778
   Integrated=    2.6000E+01
 ETOT 10  -92.336818315688    -6.602E-08 2.930E-06 1.507E-02 6.484E-05 5.995E-02
 scprqt: <Vxc>= -1.5059975E-01 hartree
 
 Pulay update with  7 previous iterations:
 mixing of old trial potential: alpha(m:m-4)=  0.392      0.398      0.623     -0.146     -0.178
 
 -------------------------------------------------------------------------------------------------
 Ekinetic   = :     2.957768E+01 Ha ,    8.048496E+02 eV
 Evext_l    = :    -5.785531E+02 Ha ,   -1.574323E+04 eV
 Evext_nl   = :     1.157427E+01 Ha ,    3.149518E+02 eV
 Epsp_core  = :     7.631172E-01 Ha ,    2.076547E+01 eV
 Ehartree   = :     2.686295E+02 Ha ,    7.309780E+03 eV
 Exc_ks     = :    -1.646158E+01 Ha ,   -4.479424E+02 eV
 Enn        = :     1.921333E+02 Ha ,    5.228214E+03 eV
 -------------------------------------------------------------------------------------------------
 Etot       = :    -9.233682E+01 Ha ,   -2.512613E+03 eV
 -------------------------------------------------------------------------------------------------
 
 Cartesian components of stress tensor (hartree/bohr^3)
  sigma(1 1)=  1.49611239E-04  sigma(3 2)=  4.68556304E-09
  sigma(2 2)=  1.49611182E-04  sigma(3 1)= -7.01758391E-10
  sigma(3 3)=  4.34696890E-04  sigma(2 1)=  1.63116179E-10
 

--- !ScfConvergenceWarning
message: |
    nstep 10 was not enough SCF cycles to converge.
...
 
 scprqt:  WARNING -
  nstep=   10 was not enough SCF cycles to converge;
  maximum force difference=  6.484E-05 exceeds toldff=  5.000E-05
 
 
 fftdatar_write: About to write data to: mos2_k_drafto_DS11_TIM2_DEN with iomode: IO_MODE_FORTRAN
 IO operation , wall:  0.03 [s] , cpu:  0.00 [s] <<< TIME
- Creating HDf5 file with MPI-IO support: mos2_k_drafto_DS11_GSR.nc
 Integrated electronic density in atomic spheres:
 ------------------------------------------------
 Atom  Sphere_radius  Integrated_density
    1        2.00000         10.40938975
    2        2.00000          3.81960120
    3        2.00000          3.81970067
 Write iteration in HIST netCDF file
 
---OUTPUT-----------------------------------------------------------------------
 
 Cartesian coordinates (xcart) [bohr]
  2.97628876712055E+00  1.71841263247078E+00  7.56929329085275E-05
  2.97633493594683E+00 -1.71841184661528E+00 -3.40409431942527E+00
  2.97633227481729E+00 -1.71837916498471E+00  3.40401862649236E+00
 Reduced coordinates (xred)
  3.33324989409848E-01  6.66664967252136E-01  2.00274874732624E-06
  6.66672647060251E-01  3.33332821659265E-01 -9.00684564865269E-02
  6.66669030196567E-01  3.33335544421933E-01  9.00664537377796E-02
 Cartesian forces (fcart) [Ha/bohr]; max,rms= 5.99482E-02 2.82406E-02 (free atoms)
  5.38516757493981E-06 -6.14104812567866E-06 -8.20191153315925E-05
 -2.75301066222857E-06  3.89015664515831E-06  5.99482250568852E-02
 -2.63215691271124E-06  2.25089148052034E-06 -5.98662059415537E-02
 Gradient of E wrt nuclear positions in reduced coordinates (gred)
 -4.76859077097975E-05  1.56299582363512E-05  3.09987331276544E-03
  2.82481202146262E-05 -1.18604462081689E-05 -2.26571455020212E+00
  1.94377874951713E-05 -3.76951202818233E-06  2.26261467688935E+00
 Total energy (etotal) [Ha]= -9.23368183156882E+01
 
 Difference of energy with previous step (new-old):
           Absolute (Ha)=-9.36082E-03
           Relative     =-1.01382E-04
 fconv : at Broyd/MD step   2, gradients have not converged yet. 
  max grad (force/stress) = 5.9948E-02 > tolmxf= 5.0000E-04 ha/bohr (free atoms)
 
 EXIT:           1           1
 {mover_itime: 2 , wall_time: ' 34.80 [s] '} <<< TIME
 
--- Iteration: ( 3/10) Internal Cycle: (1/1)
--------------------------------------------------------------------------------
 
 Cartesian coordinates (xcart) [bohr]
  2.97632340974419E+00  1.71837312731417E+00 -4.51989248117639E-04
  2.97631722605658E+00 -1.71838682309318E+00 -3.01838999341542E+00
  2.97631534208390E+00 -1.71836468335019E+00  3.01884198266354E+00
 Reduced coordinates (xred)
  3.33334640751493E-01  6.66666955330731E-01 -1.19591204315792E-05
  6.66667244878706E-01  3.33332273573961E-01 -7.98631595575780E-02
  6.66664781036468E-01  3.33334104428642E-01  7.98751186780096E-02
 
---SELF-CONSISTENT-FIELD CONVERGENCE--------------------------------------------
 
 getcut: wavevector=  0.0000  0.0000  0.0000  ngfft=  30  30 180
         ecut(hartree)=     25.000   => boxcut(ratio)=   2.11597
 
 ITER STEP NUMBER     1
 Max number of non-self-consistent loops: 2
 Total charge density [el/Bohr^3]
)     Maximum=    9.7249E-01  at reduced coord.    0.2333    0.5000    0.0000
)     Minimum=    2.2683E-08  at reduced coord.    0.3333    0.6667    0.4222
   Integrated=    2.6000E+01
 ETOT  1  -91.954287668647    -9.195E+01 1.149E-01 9.574E+03 2.151E-01 2.749E-01
 scprqt: <Vxc>= -1.4212904E-01 hartree
 
 Simple mixing update:
  residual square of the potential:    457.618632146355
{SCF_istep: 1 , Vnl|psi>: 3452 , wall_time: '  6.99 [s] '} <<< TIME
 
 ITER STEP NUMBER     2
 Max number of non-self-consistent loops: 2
 Total charge density [el/Bohr^3]
)     Maximum=    8.5812E-01  at reduced coord.    0.3333    0.6667    0.0222
)     Minimum=    1.6043E-08  at reduced coord.    0.3333    0.6667    0.4222
   Integrated=    2.6000E+01
 ETOT  2  -91.868645140788     8.564E-02 6.386E-04 4.582E+03 4.178E-01 1.429E-01
 scprqt: <Vxc>= -1.4459741E-01 hartree
 
 Pulay update with  1 previous iterations:
 mixing of old trial potential: alpha(m:m-4)=  0.484      0.516
{SCF_istep: 2 , Vnl|psi>: 2107 , wall_time: '  4.66 [s] '} <<< TIME
 
 ITER STEP NUMBER     3
 Total charge density [el/Bohr^3]
)     Maximum=    9.5064E-01  at reduced coord.    0.2333    0.7333    0.0000
)     Minimum=    2.5754E-08  at reduced coord.    0.3333    0.6667    0.5778
   Integrated=    2.6000E+01
 ETOT  3  -92.320513248886    -4.519E-01 5.465E-03 1.099E+03 1.954E-01 5.252E-02
 scprqt: <Vxc>= -1.4422764E-01 hartree
 
 Pulay update with  2 previous iterations:
 mixing of old trial potential: alpha(m:m-4)=  0.771      0.212      0.175E-01
{SCF_istep: 3 , Vnl|psi>: 1135 , wall_time: '  2.51 [s] '} <<< TIME
 
 ITER STEP NUMBER     4
 Total charge density [el/Bohr^3]
)     Maximum=    9.2457E-01  at reduced coord.    0.2333    0.5000    0.0000
)     Minimum=    1.6174E-08  at reduced coord.    0.3333    0.6667    0.5778
   Integrated=    2.6000E+01
 ETOT  4  -92.363839203505    -4.333E-02 1.357E-03 1.857E+02 3.800E-02 1.452E-02
 scprqt: <Vxc>= -1.4431181E-01 hartree
 
 Pulay update with  3 previous iterations:
 mixing of old trial potential: alpha(m:m-4)=  0.572      0.366      0.741E-01 -0.117E-01
{SCF_istep: 4 , Vnl|psi>: 1146 , wall_time: '  2.54 [s] '} <<< TIME
 
 ITER STEP NUMBER     5
 Total charge density [el/Bohr^3]
)     Maximum=    9.2630E-01  at reduced coord.    0.2333    0.7333    0.0000
)     Minimum=    1.3907E-08  at reduced coord.    0.3333    0.6667    0.4222
   Integrated=    2.6000E+01
 ETOT  5  -92.364228296381    -3.891E-04 6.021E-04 1.700E+02 1.080E-03 1.558E-02
 scprqt: <Vxc>= -1.4426910E-01 hartree
 
 Pulay update with  4 previous iterations:
 mixing of old trial potential: alpha(m:m-4)=  0.469      0.273      0.232      0.402E-01 -0.143E-01
{SCF_istep: 5 , Vnl|psi>: 1150 , wall_time: '  2.55 [s] '} <<< TIME
 
 ITER STEP NUMBER     6
 Total charge density [el/Bohr^3]
)     Maximum=    9.2663E-01  at reduced coord.    0.2333    0.7333    0.0000
)     Minimum=    1.3588E-08  at reduced coord.    0.3333    0.6667    0.4222
   Integrated=    2.6000E+01
 ETOT  6  -92.364382032886    -1.537E-04 2.447E-04 1.558E+02 1.257E-03 1.432E-02
 scprqt: <Vxc>= -1.4432065E-01 hartree
 
 Pulay update with  5 previous iterations:
 mixing of old trial potential: alpha(m:m-4)=  0.516      0.154      0.151      0.164      0.273E-01
{SCF_istep: 6 , Vnl|psi>: 1141 , wall_time: '  2.62 [s] '} <<< TIME
 
 ITER STEP NUMBER     7
 Total charge density [el/Bohr^3]
)     Maximum=    9.2696E-01  at reduced coord.    0.2667    0.7667    0.0000
)     Minimum=    1.3557E-08  at reduced coord.    0.3333    0.6667    0.4222
   Integrated=    2.6000E+01
 ETOT  7  -92.364441195778    -5.916E-05 1.381E-04 1.472E+02 3.211E-04 1.400E-02
 scprqt: <Vxc>= -1.4437272E-01 hartree
 
 Pulay update with  6 previous iterations:
 mixing of old trial potential: alpha(m:m-4)=  0.918      0.110     -0.125      0.222E-01  0.709E-01
{SCF_istep: 7 , Vnl|psi>: 1143 , wall_time: '  2.67 [s] '} <<< TIME
 
 ITER STEP NUMBER     8
 Total charge density [el/Bohr^3]
)     Maximum=    9.2723E-01  at reduced coord.    0.5000    0.7667    0.0000
)     Minimum=    1.3560E-08  at reduced coord.    0.3333    0.6667    0.4222
   Integrated=    2.6000E+01
 ETOT  8  -92.364558335801    -1.171E-04 5.869E-05 1.291E+02 1.002E-03 1.300E-02
 scprqt: <Vxc>= -1.4447364E-01 hartree
 
 Pulay update with  7 previous iterations:
 mixing of old trial potential: alpha(m:m-4)=   1.02      0.300     -0.125E-01 -0.180     -0.862E-01
{SCF_istep: 8 , Vnl|psi>: 1137 , wall_time: '  2.54 [s] '} <<< TIME
 
 ITER STEP NUMBER     9
 Total charge density [el/Bohr^3]
)     Maximum=    9.2752E-01  at reduced coord.    0.5000    0.7333    0.0000
)     Minimum=    1.3581E-08  at reduced coord.    0.3333    0.6667    0.4222
   Integrated=    2.6000E+01
 ETOT  9  -92.364686429632    -1.281E-04 3.043E-05 1.053E+02 1.314E-03 1.169E-02
 scprqt: <Vxc>= -1.4462567E-01 hartree
 
 Pulay update with  7 previous iterations:
 mixing of old trial potential: alpha(m:m-4)=  0.604      0.214      0.459      0.684E-01 -0.180
{SCF_istep: 9 , Vnl|psi>: 1137 , wall_time: '  2.55 [s] '} <<< TIME
 
 ITER STEP NUMBER    10
 Total charge density [el/Bohr^3]
)     Maximum=    9.2758E-01  at reduced coord.    0.5000    0.7333    0.0000
)     Minimum=    1.3591E-08  at reduced coord.    0.3333    0.6667    0.4222
   Integrated=    2.6000E+01
 ETOT 10  -92.364728049737    -4.162E-05 2.543E-05 9.564E+01 4.538E-04 1.123E-02
 scprqt: <Vxc>= -1.4468625E-01 hartree
 
 Pulay update with  7 previous iterations:
 mixing of old trial potential: alpha(m:m-4)=  0.798      0.634E-03 -0.305E-01  0.266      0.158
 
 -------------------------------------------------------------------------------------------------
 Ekinetic   = :     2.994711E+01 Ha ,    8.149023E+02 eV
 Evext_l    = :    -6.070022E+02 Ha ,   -1.651737E+04 eV
 Evext_nl   = :     1.162318E+01 Ha ,    3.162828E+02 eV
 Epsp_core  = :     7.631172E-01 Ha ,    2.076547E+01 eV
 Ehartree   = :     2.827333E+02 Ha ,    7.693566E+03 eV
 Exc_ks     = :    -1.660657E+01 Ha ,   -4.518878E+02 eV
 Enn        = :     2.061773E+02 Ha ,    5.610369E+03 eV
 -------------------------------------------------------------------------------------------------
 Etot       = :    -9.236473E+01 Ha ,   -2.513372E+03 eV
 -------------------------------------------------------------------------------------------------
 
 Cartesian components of stress tensor (hartree/bohr^3)
  sigma(1 1)=  6.22295761E-05  sigma(3 2)=  1.83331590E-09
  sigma(2 2)=  6.22314393E-05  sigma(3 1)= -4.28642313E-09
  sigma(3 3)=  7.90192573E-05  sigma(2 1)= -1.10539539E-08
 

--- !ScfConvergenceWarning
message: |
    nstep 10 was not enough SCF cycles to converge.
...
 
 scprqt:  WARNING -
  nstep=   10 was not enough SCF cycles to converge;
  maximum force difference=  4.538E-04 exceeds toldff=  5.000E-05
 
 
 fftdatar_write: About to write data to: mos2_k_drafto_DS11_TIM3_DEN with iomode: IO_MODE_FORTRAN
 IO operation , wall:  0.05 [s] , cpu:  0.00 [s] <<< TIME
- Creating HDf5 file with MPI-IO support: mos2_k_drafto_DS11_GSR.nc
 Integrated electronic density in atomic spheres:
 ------------------------------------------------
 Atom  Sphere_radius  Integrated_density
    1        2.00000         10.51028195
    2        2.00000          3.92504934
    3        2.00000          3.92478858
 Write iteration in HIST netCDF file
 
---OUTPUT-----------------------------------------------------------------------
 
 Cartesian coordinates (xcart) [bohr]
  2.97632340974419E+00  1.71837312731417E+00 -4.51989248117639E-04
  2.97631722605658E+00 -1.71838682309318E+00 -3.01838999341542E+00
  2.97631534208390E+00 -1.71836468335019E+00  3.01884198266354E+00
 Reduced coordinates (xred)
  3.33334640751493E-01  6.66666955330731E-01 -1.19591204315792E-05
  6.66667244878706E-01  3.33332273573961E-01 -7.98631595575780E-02
  6.66664781036468E-01  3.33334104428642E-01  7.98751186780096E-02
 Cartesian forces (fcart) [Ha/bohr]; max,rms= 1.12328E-02 5.24924E-03 (free atoms)
 -3.03174610533199E-06  8.95464307526603E-07  1.97531598343488E-04
  2.37348840344150E-07 -2.49686519242232E-07  1.10352471447654E-02
  2.79439726498784E-06 -6.45777788284371E-07 -1.12327787431089E-02
 Gradient of E wrt nuclear positions in reduced coordinates (gred)
  1.36396820195511E-05  4.40720298753736E-06 -7.46561246920720E-03
 -1.99359353095593E-06  5.80741966399338E-07 -4.17071898246299E-01
 -1.16460884885951E-05 -4.98794495393670E-06  4.24537510715506E-01
 Total energy (etotal) [Ha]= -9.23647280497370E+01
 
 Difference of energy with previous step (new-old):
           Absolute (Ha)=-2.79097E-02
           Relative     =-3.02214E-04
 fconv : at Broyd/MD step   3, gradients have not converged yet. 
  max grad (force/stress) = 1.1233E-02 > tolmxf= 5.0000E-04 ha/bohr (free atoms)
 
 EXIT:           1           1
 {mover_itime: 3 , wall_time: ' 34.78 [s] '} <<< TIME
 
--- Iteration: ( 4/10) Internal Cycle: (1/1)
--------------------------------------------------------------------------------
 
 Cartesian coordinates (xcart) [bohr]
  2.97632636610601E+00  1.71836660935522E+00 -3.11107601948024E-04
  2.97631410253372E+00 -1.71838230408334E+00 -2.93047255708426E+00
  2.97631550924494E+00 -1.71836268440107E+00  2.93078366468621E+00
 Reduced coordinates (xred)
  3.33335769580079E-01  6.66666819796933E-01 -8.23155261849922E-06
  6.66666281847684E-01  3.33332187146503E-01 -7.75369643803723E-02
  6.66664615238904E-01  3.33334326389897E-01  7.75451959329908E-02
 
---SELF-CONSISTENT-FIELD CONVERGENCE--------------------------------------------
 
 getcut: wavevector=  0.0000  0.0000  0.0000  ngfft=  30  30 180
         ecut(hartree)=     25.000   => boxcut(ratio)=   2.11597
 
 ITER STEP NUMBER     1
 Max number of non-self-consistent loops: 2
 Total charge density [el/Bohr^3]
)     Maximum=    9.3009E-01  at reduced coord.    0.2667    0.5000    0.0000
)     Minimum=    1.3732E-08  at reduced coord.    0.3333    0.6667    0.4222
   Integrated=    2.6000E+01
 ETOT  1  -92.357837632200    -9.236E+01 6.817E-04 2.664E+02 2.336E-02 3.459E-02
 scprqt: <Vxc>= -1.4386922E-01 hartree
 
 Simple mixing update:
  residual square of the potential:    106.924680803155
{SCF_istep: 1 , Vnl|psi>: 3455 , wall_time: '  6.95 [s] '} <<< TIME
 
 ITER STEP NUMBER     2
 Max number of non-self-consistent loops: 2
 Total charge density [el/Bohr^3]
)     Maximum=    9.2255E-01  at reduced coord.    0.5000    0.7333    0.0000
)     Minimum=    1.3722E-08  at reduced coord.    0.3333    0.6667    0.4222
   Integrated=    2.6000E+01
 ETOT  2  -92.360638760679    -2.801E-03 1.287E-04 3.391E+01 5.900E-02 2.452E-02
 scprqt: <Vxc>= -1.4405115E-01 hartree
 
 Pulay update with  1 previous iterations:
 mixing of old trial potential: alpha(m:m-4)=  0.928      0.724E-01
{SCF_istep: 2 , Vnl|psi>: 2142 , wall_time: '  4.80 [s] '} <<< TIME
 
 ITER STEP NUMBER     3
 Total charge density [el/Bohr^3]
)     Maximum=    9.4354E-01  at reduced coord.    0.2667    0.5000    0.0000
)     Minimum=    1.4153E-08  at reduced coord.    0.3333    0.6667    0.4222
   Integrated=    2.6000E+01
 ETOT  3  -92.352897323859     7.741E-03 2.200E-04 1.627E+02 3.866E-02 1.425E-02
 scprqt: <Vxc>= -1.4390664E-01 hartree
 
 Pulay update with  2 previous iterations:
 mixing of old trial potential: alpha(m:m-4)=  0.391      0.606      0.353E-02
{SCF_istep: 3 , Vnl|psi>: 1137 , wall_time: '  2.53 [s] '} <<< TIME
 
 ITER STEP NUMBER     4
 Total charge density [el/Bohr^3]
)     Maximum=    9.2925E-01  at reduced coord.    0.5000    0.7667    0.0000
)     Minimum=    1.4110E-08  at reduced coord.    0.3333    0.6667    0.4222
   Integrated=    2.6000E+01
 ETOT  4  -92.364755650507    -1.186E-02 1.271E-04 3.384E+00 2.267E-02 8.594E-03
 scprqt: <Vxc>= -1.4402335E-01 hartree
 
 Pulay update with  3 previous iterations:
 mixing of old trial potential: alpha(m:m-4)=  0.474      0.214      0.311      0.661E-03
{SCF_istep: 4 , Vnl|psi>: 1131 , wall_time: '  2.53 [s] '} <<< TIME
 
 ITER STEP NUMBER     5
 Total charge density [el/Bohr^3]
)     Maximum=    9.2943E-01  at reduced coord.    0.5000    0.7667    0.0000
)     Minimum=    1.3807E-08  at reduced coord.    0.3333    0.6667    0.4222
   Integrated=    2.6000E+01
 ETOT  5  -92.364775440047    -1.979E-05 1.111E-04 3.082E+00 2.126E-04 8.381E-03
 scprqt: <Vxc>= -1.4407404E-01 hartree
 
 Pulay update with  4 previous iterations:
 mixing of old trial potential: alpha(m:m-4)=  0.397      0.329      0.118      0.157     -0.441E-03
{SCF_istep: 5 , Vnl|psi>: 1150 , wall_time: '  2.62 [s] '} <<< TIME
 
 ITER STEP NUMBER     6
 Total charge density [el/Bohr^3]
)     Maximum=    9.2959E-01  at reduced coord.    0.2667    0.5000    0.0000
)     Minimum=    1.3805E-08  at reduced coord.    0.3333    0.6667    0.4222
   Integrated=    2.6000E+01
 ETOT  6  -92.364780033481    -4.593E-06 4.749E-05 2.841E+00 2.739E-04 8.651E-03
 scprqt: <Vxc>= -1.4407943E-01 hartree
 
 Pulay update with  5 previous iterations:
 mixing of old trial potential: alpha(m:m-4)=  0.262      0.206      0.297      0.101      0.135
{SCF_istep: 6 , Vnl|psi>: 1137 , wall_time: '  2.53 [s] '} <<< TIME
 
 ITER STEP NUMBER     7
 Total charge density [el/Bohr^3]
)     Maximum=    9.2962E-01  at reduced coord.    0.2667    0.5000    0.0000
)     Minimum=    1.3815E-08  at reduced coord.    0.3333    0.6667    0.4222
   Integrated=    2.6000E+01
 ETOT  7  -92.364780400366    -3.669E-07 5.055E-05 2.764E+00 1.750E-05 8.634E-03
 scprqt: <Vxc>= -1.4408315E-01 hartree
 
 Pulay update with  6 previous iterations:
 mixing of old trial potential: alpha(m:m-4)=   2.51      -1.43     -0.356      0.184      0.351E-01
{SCF_istep: 7 , Vnl|psi>: 1159 , wall_time: '  2.58 [s] '} <<< TIME
 
 ITER STEP NUMBER     8
 Total charge density [el/Bohr^3]
)     Maximum=    9.2974E-01  at reduced coord.    0.5000    0.7333    0.0000
)     Minimum=    1.3821E-08  at reduced coord.    0.3333    0.6667    0.4222
   Integrated=    2.6000E+01
 ETOT  8  -92.364782662525    -2.262E-06 2.599E-05 2.347E+00 1.296E-04 8.762E-03
 scprqt: <Vxc>= -1.4410343E-01 hartree
 
 Pulay update with  7 previous iterations:
 mixing of old trial potential: alpha(m:m-4)=  0.779       1.85      -1.28     -0.437      0.819E-01
{SCF_istep: 8 , Vnl|psi>: 1137 , wall_time: '  2.59 [s] '} <<< TIME
 
 ITER STEP NUMBER     9
 Total charge density [el/Bohr^3]
)     Maximum=    9.2980E-01  at reduced coord.    0.5000    0.7333    0.0000
)     Minimum=    1.3825E-08  at reduced coord.    0.3333    0.6667    0.4222
   Integrated=    2.6000E+01
 ETOT  9  -92.364784104845    -1.442E-06 3.134E-05 2.007E+00 1.008E-04 8.861E-03
 scprqt: <Vxc>= -1.4412235E-01 hartree
 
 Pulay update with  7 previous iterations:
 mixing of old trial potential: alpha(m:m-4)=  0.675     -0.506E-01   1.46     -0.810     -0.331
{SCF_istep: 9 , Vnl|psi>: 1140 , wall_time: '  2.59 [s] '} <<< TIME
 
 ITER STEP NUMBER    10
 Total charge density [el/Bohr^3]
)     Maximum=    9.2979E-01  at reduced coord.    0.5000    0.7333    0.0000
)     Minimum=    1.3831E-08  at reduced coord.    0.3333    0.6667    0.4222
   Integrated=    2.6000E+01
 ETOT 10  -92.364784928109    -8.233E-07 1.599E-05 1.859E+00 6.095E-05 8.921E-03
 scprqt: <Vxc>= -1.4412772E-01 hartree
 
 Pulay update with  7 previous iterations:
 mixing of old trial potential: alpha(m:m-4)=   1.61     -0.243     -0.741      0.552     -0.835E-01
 
 -------------------------------------------------------------------------------------------------
 Ekinetic   = :     3.002150E+01 Ha ,    8.169265E+02 eV
 Evext_l    = :    -6.132015E+02 Ha ,   -1.668606E+04 eV
 Evext_nl   = :     1.163162E+01 Ha ,    3.165124E+02 eV
 Epsp_core  = :     7.631172E-01 Ha ,    2.076547E+01 eV
 Ehartree   = :     2.856502E+02 Ha ,    7.772938E+03 eV
 Exc_ks     = :    -1.663636E+01 Ha ,   -4.526985E+02 eV
 Enn        = :     2.094066E+02 Ha ,    5.698244E+03 eV
 -------------------------------------------------------------------------------------------------
 Etot       = :    -9.236478E+01 Ha ,   -2.513374E+03 eV
 -------------------------------------------------------------------------------------------------
 
 Cartesian components of stress tensor (hartree/bohr^3)
  sigma(1 1)=  3.47265195E-05  sigma(3 2)=  4.83717912E-09
  sigma(2 2)=  3.47207060E-05  sigma(3 1)=  4.37756484E-10
  sigma(3 3)=  2.86623418E-05  sigma(2 1)= -2.30470558E-09
 

--- !ScfConvergenceWarning
message: |
    nstep 10 was not enough SCF cycles to converge.
...
 
 scprqt:  WARNING -
  nstep=   10 was not enough SCF cycles to converge;
  maximum force difference=  6.095E-05 exceeds toldff=  5.000E-05
 
 
 fftdatar_write: About to write data to: mos2_k_drafto_DS11_TIM4_DEN with iomode: IO_MODE_FORTRAN
 IO operation , wall:  0.04 [s] , cpu:  0.00 [s] <<< TIME
- Creating HDf5 file with MPI-IO support: mos2_k_drafto_DS11_GSR.nc
 Integrated electronic density in atomic spheres:
 ------------------------------------------------
 Atom  Sphere_radius  Integrated_density
    1        2.00000         10.53072962
    2        2.00000          3.94825275
    3        2.00000          3.94805524
 Write iteration in HIST netCDF file
 
---OUTPUT-----------------------------------------------------------------------
 
 Cartesian coordinates (xcart) [bohr]
  2.97632636610601E+00  1.71836660935522E+00 -3.11107601948024E-04
  2.97631410253372E+00 -1.71838230408334E+00 -2.93047255708426E+00
  2.97631550924494E+00 -1.71836268440107E+00  2.93078366468621E+00
 Reduced coordinates (xred)
  3.33335769580079E-01  6.66666819796933E-01 -8.23155261849922E-06
  6.66666281847684E-01  3.33332187146503E-01 -7.75369643803723E-02
  6.66664615238904E-01  3.33334326389897E-01  7.75451959329908E-02
 Cartesian forces (fcart) [Ha/bohr]; max,rms= 8.92136E-03 4.16755E-03 (free atoms)
 -2.69719671303097E-06  4.00216624212714E-06  1.63576265070190E-04
  1.53835402447898E-06 -1.04918746385329E-06 -8.92136361861029E-03
  1.15884268855200E-06 -2.95297877827385E-06  8.75778735354010E-03
 Gradient of E wrt nuclear positions in reduced coordinates (gred)
  2.86594247252391E-05 -1.26039909156732E-05 -6.18228685645936E-03
 -9.98733494827488E-06  8.30071372958542E-07  3.37178679421262E-01
 -1.86720897769642E-05  1.17739195427147E-05 -3.30996392564803E-01
 Total energy (etotal) [Ha]= -9.23647849281093E+01
 
 Difference of energy with previous step (new-old):
           Absolute (Ha)=-5.68784E-05
           Relative     =-6.15802E-07
 fconv : at Broyd/MD step   4, gradients have not converged yet. 
  max grad (force/stress) = 8.9214E-03 > tolmxf= 5.0000E-04 ha/bohr (free atoms)
 
 EXIT:           1           1
 {mover_itime: 4 , wall_time: ' 34.90 [s] '} <<< TIME
 
--- Iteration: ( 5/10) Internal Cycle: (1/1)
--------------------------------------------------------------------------------
 
 Cartesian coordinates (xcart) [bohr]
  2.97632221333154E+00  1.71837212018287E+00 -1.94851523089060E-04
  2.97631644697293E+00 -1.71838499841293E+00 -2.96947016633282E+00
  2.97631731758020E+00 -1.71836550089914E+00  2.96966501785591E+00
 Reduced coordinates (xred)
  3.33334537445162E-01  6.66666656659725E-01 -5.15554925388894E-06
  6.66666937021334E-01  3.33332319670501E-01 -7.85687966805642E-02
  6.66665192200172E-01  3.33334357003108E-01  7.85739522298182E-02
 
---SELF-CONSISTENT-FIELD CONVERGENCE--------------------------------------------
 
 getcut: wavevector=  0.0000  0.0000  0.0000  ngfft=  30  30 180
         ecut(hartree)=     25.000   => boxcut(ratio)=   2.11597
 
 ITER STEP NUMBER     1
 Max number of non-self-consistent loops: 2
 Total charge density [el/Bohr^3]
)     Maximum=    9.2439E-01  at reduced coord.    0.5000    0.7667    0.0000
)     Minimum=    1.3996E-08  at reduced coord.    0.3333    0.6667    0.4222
   Integrated=    2.6000E+01
 ETOT  1  -92.358843353420    -9.236E+01 4.617E-05 2.074E+02 2.708E-02 3.600E-02
 scprqt: <Vxc>= -1.4522733E-01 hartree
 
 Simple mixing update:
  residual square of the potential:    59.3577368013035
{SCF_istep: 1 , Vnl|psi>: 3461 , wall_time: '  6.99 [s] '} <<< TIME
 
 ITER STEP NUMBER     2
 Max number of non-self-consistent loops: 2
 Total charge density [el/Bohr^3]
)     Maximum=    9.3980E-01  at reduced coord.    0.5000    0.7667    0.0000
)     Minimum=    1.4312E-08  at reduced coord.    0.3333    0.6667    0.4222
   Integrated=    2.6000E+01
 ETOT  2  -92.356888657436     1.955E-03 2.969E-05 7.290E+01 5.327E-02 1.736E-02
 scprqt: <Vxc>= -1.4489707E-01 hartree
 
 Pulay update with  1 previous iterations:
 mixing of old trial potential: alpha(m:m-4)=  0.821      0.179
{SCF_istep: 2 , Vnl|psi>: 2123 , wall_time: '  4.72 [s] '} <<< TIME
 
 ITER STEP NUMBER     3
 Total charge density [el/Bohr^3]
)     Maximum=    9.1266E-01  at reduced coord.    0.5000    0.7333    0.0000
)     Minimum=    1.4672E-08  at reduced coord.    0.3333    0.6667    0.4222
   Integrated=    2.6000E+01
 ETOT  3  -92.349414221641     7.474E-03 2.081E-04 2.144E+02 4.635E-02 2.908E-02
 scprqt: <Vxc>= -1.4515533E-01 hartree
 
 Pulay update with  2 previous iterations:
 mixing of old trial potential: alpha(m:m-4)=  0.427      0.569      0.374E-02
{SCF_istep: 3 , Vnl|psi>: 1128 , wall_time: '  2.52 [s] '} <<< TIME
 
 ITER STEP NUMBER     4
 Total charge density [el/Bohr^3]
)     Maximum=    9.2788E-01  at reduced coord.    0.5000    0.7667    0.0000
)     Minimum=    1.4829E-08  at reduced coord.    0.3333    0.6667    0.4222
   Integrated=    2.6000E+01
 ETOT  4  -92.365146435039    -1.573E-02 1.061E-04 4.892E+00 2.533E-02 3.776E-03
 scprqt: <Vxc>= -1.4504082E-01 hartree
 
 Pulay update with  3 previous iterations:
 mixing of old trial potential: alpha(m:m-4)=  0.343      0.273      0.382      0.205E-02
{SCF_istep: 4 , Vnl|psi>: 1137 , wall_time: '  2.54 [s] '} <<< TIME
 
 ITER STEP NUMBER     5
 Total charge density [el/Bohr^3]
)     Maximum=    9.2806E-01  at reduced coord.    0.5000    0.7333    0.0000
)     Minimum=    1.4063E-08  at reduced coord.    0.3333    0.6667    0.4222
   Integrated=    2.6000E+01
 ETOT  5  -92.365186179206    -3.974E-05 2.676E-06 3.851E+00 1.634E-04 3.612E-03
 scprqt: <Vxc>= -1.4494956E-01 hartree
 
 Pulay update with  4 previous iterations:
 mixing of old trial potential: alpha(m:m-4)=  0.333      0.280      0.157      0.231     -0.468E-03
{SCF_istep: 5 , Vnl|psi>: 1162 , wall_time: '  2.59 [s] '} <<< TIME
 
 ITER STEP NUMBER     6
 Total charge density [el/Bohr^3]
)     Maximum=    9.2835E-01  at reduced coord.    0.5000    0.7333    0.0000
)     Minimum=    1.4000E-08  at reduced coord.    0.3333    0.6667    0.4222
   Integrated=    2.6000E+01
 ETOT  6  -92.365206446651    -2.027E-05 3.407E-07 2.907E+00 7.475E-04 2.865E-03
 scprqt: <Vxc>= -1.4493766E-01 hartree
 
 Pulay update with  5 previous iterations:
 mixing of old trial potential: alpha(m:m-4)=  0.151      0.233      0.259      0.145      0.213
{SCF_istep: 6 , Vnl|psi>: 1162 , wall_time: '  2.61 [s] '} <<< TIME
 
 ITER STEP NUMBER     7
 Total charge density [el/Bohr^3]
)     Maximum=    9.2835E-01  at reduced coord.    0.5000    0.7333    0.0000
)     Minimum=    1.3973E-08  at reduced coord.    0.3333    0.6667    0.4222
   Integrated=    2.6000E+01
 ETOT  7  -92.365206982017    -5.354E-07 1.214E-06 2.727E+00 1.066E-05 2.875E-03
 scprqt: <Vxc>= -1.4493290E-01 hartree
 
 Pulay update with  6 previous iterations:
 mixing of old trial potential: alpha(m:m-4)=   1.08     -0.484     -0.155      0.273      0.118
{SCF_istep: 7 , Vnl|psi>: 1128 , wall_time: '  2.52 [s] '} <<< TIME
 
 ITER STEP NUMBER     8
 Total charge density [el/Bohr^3]
)     Maximum=    9.2837E-01  at reduced coord.    0.5000    0.7333    0.0000
)     Minimum=    1.3969E-08  at reduced coord.    0.3333    0.6667    0.4222
   Integrated=    2.6000E+01
 ETOT  8  -92.365209591770    -2.610E-06 2.045E-07 2.429E+00 1.154E-04 2.759E-03
 scprqt: <Vxc>= -1.4492385E-01 hartree
 
 Pulay update with  7 previous iterations:
 mixing of old trial potential: alpha(m:m-4)=   2.79      0.211      -1.43     -0.744      0.185
{SCF_istep: 8 , Vnl|psi>: 1162 , wall_time: '  2.59 [s] '} <<< TIME
 
 ITER STEP NUMBER     9
 Total charge density [el/Bohr^3]
)     Maximum=    9.2838E-01  at reduced coord.    0.5000    0.7667    0.0000
)     Minimum=    1.3962E-08  at reduced coord.    0.3333    0.6667    0.4222
   Integrated=    2.6000E+01
 ETOT  9  -92.365217042256    -7.450E-06 6.298E-07 1.509E+00 3.723E-04 2.387E-03
 scprqt: <Vxc>= -1.4488065E-01 hartree
 
 Pulay update with  7 previous iterations:
 mixing of old trial potential: alpha(m:m-4)=  0.446       1.07      0.864     -0.905     -0.596
{SCF_istep: 9 , Vnl|psi>: 1134 , wall_time: '  2.53 [s] '} <<< TIME
 
 ITER STEP NUMBER    10
 Total charge density [el/Bohr^3]
)     Maximum=    9.2840E-01  at reduced coord.    0.5000    0.7667    0.0000
)     Minimum=    1.3955E-08  at reduced coord.    0.3333    0.6667    0.4222
   Integrated=    2.6000E+01
 ETOT 10  -92.365217883975    -8.417E-07 9.949E-08 1.415E+00 7.143E-05 2.316E-03
 scprqt: <Vxc>= -1.4487553E-01 hartree
 
 Pulay update with  7 previous iterations:
 mixing of old trial potential: alpha(m:m-4)= -0.451      0.790       1.37      0.879      -1.10
 
 -------------------------------------------------------------------------------------------------
 Ekinetic   = :     2.996724E+01 Ha ,    8.154501E+02 eV
 Evext_l    = :    -6.102462E+02 Ha ,   -1.660564E+04 eV
 Evext_nl   = :     1.162486E+01 Ha ,    3.163286E+02 eV
 Epsp_core  = :     7.631172E-01 Ha ,    2.076547E+01 eV
 Ehartree   = :     2.841672E+02 Ha ,    7.732582E+03 eV
 Exc_ks     = :    -1.661805E+01 Ha ,   -4.522002E+02 eV
 Enn        = :     2.079767E+02 Ha ,    5.659334E+03 eV
 -------------------------------------------------------------------------------------------------
 Etot       = :    -9.236522E+01 Ha ,   -2.513385E+03 eV
 -------------------------------------------------------------------------------------------------
 
 Cartesian components of stress tensor (hartree/bohr^3)
  sigma(1 1)=  4.86837221E-05  sigma(3 2)=  4.84659797E-09
  sigma(2 2)=  4.86764109E-05  sigma(3 1)=  3.74041175E-10
  sigma(3 3)=  8.09607459E-05  sigma(2 1)=  1.13849048E-09
 

--- !ScfConvergenceWarning
message: |
    nstep 10 was not enough SCF cycles to converge.
...
 
 scprqt:  WARNING -
  nstep=   10 was not enough SCF cycles to converge;
  maximum force difference=  7.143E-05 exceeds toldff=  5.000E-05
 
 
 fftdatar_write: About to write data to: mos2_k_drafto_DS11_TIM5_DEN with iomode: IO_MODE_FORTRAN
 IO operation , wall:  0.10 [s] , cpu:  0.00 [s] <<< TIME
- Creating HDf5 file with MPI-IO support: mos2_k_drafto_DS11_GSR.nc
 Integrated electronic density in atomic spheres:
 ------------------------------------------------
 Atom  Sphere_radius  Integrated_density
    1        2.00000         10.51485228
    2        2.00000          3.93351174
    3        2.00000          3.93340111
 Write iteration in HIST netCDF file
 
---OUTPUT-----------------------------------------------------------------------
 
 Cartesian coordinates (xcart) [bohr]
  2.97632221333154E+00  1.71837212018287E+00 -1.94851523089060E-04
  2.97631644697293E+00 -1.71838499841293E+00 -2.96947016633282E+00
  2.97631731758020E+00 -1.71836550089914E+00  2.96966501785591E+00
 Reduced coordinates (xred)
  3.33334537445162E-01  6.66666656659725E-01 -5.15554925388894E-06
  6.66666937021334E-01  3.33332319670501E-01 -7.85687966805642E-02
  6.66665192200172E-01  3.33334357003108E-01  7.85739522298182E-02
 Cartesian forces (fcart) [Ha/bohr]; max,rms= 2.31563E-03 1.07012E-03 (free atoms)
 -4.08824941932480E-07  1.56392468747739E-06  9.40601159318210E-05
  2.67311886240380E-07  1.50494571990316E-07 -2.31563239402558E-03
  1.41513055692100E-07 -1.71441925946770E-06  2.22157227809376E-03
 Gradient of E wrt nuclear positions in reduced coordinates (gred)
  9.27903641170141E-06 -6.84544980558383E-06 -3.55495718277231E-03
 -1.97854988151674E-08 -1.57142521092194E-06  8.75182209829336E-02
 -9.25925091288624E-06  8.41687501650577E-06 -8.39632638001613E-02
 Total energy (etotal) [Ha]= -9.23652178839747E+01
 
 Difference of energy with previous step (new-old):
           Absolute (Ha)=-4.32956E-04
           Relative     =-4.68745E-06
 fconv : at Broyd/MD step   5, gradients have not converged yet. 
  max grad (force/stress) = 2.3156E-03 > tolmxf= 5.0000E-04 ha/bohr (free atoms)
 
 EXIT:           1           1
 {mover_itime: 5 , wall_time: ' 35.18 [s] '} <<< TIME
 
--- Iteration: ( 6/10) Internal Cycle: (1/1)
--------------------------------------------------------------------------------
 
 Cartesian coordinates (xcart) [bohr]
  2.97632116110024E+00  1.71837474460780E+00 -8.46508459898676E-05
  2.97631708471476E+00 -1.71838536359458E+00 -2.98296934153557E+00
  2.97631773206966E+00 -1.71836776014242E+00  2.98305399238156E+00
 Reduced coordinates (xred)
  3.33334106133189E-01  6.66666734437206E-01 -2.23976491928501E-06
  6.66667079576560E-01  3.33332391387303E-01 -7.89259694731672E-02
  6.66665480956918E-01  3.33334207508824E-01  7.89282092380865E-02
 
---SELF-CONSISTENT-FIELD CONVERGENCE--------------------------------------------
 
 getcut: wavevector=  0.0000  0.0000  0.0000  ngfft=  30  30 180
         ecut(hartree)=     25.000   => boxcut(ratio)=   2.11597
 
 ITER STEP NUMBER     1
 Max number of non-self-consistent loops: 2
 Total charge density [el/Bohr^3]
)     Maximum=    9.2760E-01  at reduced coord.    0.2667    0.7667    0.0000
)     Minimum=    1.3923E-08  at reduced coord.    0.3333    0.6667    0.4222
   Integrated=    2.6000E+01
 ETOT  1  -92.364960348171    -9.236E+01 5.153E-07 2.411E+01 4.992E-03 7.307E-03
 scprqt: <Vxc>= -1.4499006E-01 hartree
 
 Simple mixing update:
  residual square of the potential:    18.6647786931577
{SCF_istep: 1 , Vnl|psi>: 3459 , wall_time: '  7.03 [s] '} <<< TIME
 
 ITER STEP NUMBER     2
 Max number of non-self-consistent loops: 2
 Total charge density [el/Bohr^3]
)     Maximum=    9.3005E-01  at reduced coord.    0.5000    0.7667    0.0000
)     Minimum=    1.3935E-08  at reduced coord.    0.3333    0.6667    0.4222
   Integrated=    2.6000E+01
 ETOT  2  -92.364941463485     1.888E-05 3.697E-07 3.125E+00 1.217E-02 4.884E-03
 scprqt: <Vxc>= -1.4495092E-01 hartree
 
 Pulay update with  1 previous iterations:
 mixing of old trial potential: alpha(m:m-4)=  0.976      0.244E-01
{SCF_istep: 2 , Vnl|psi>: 2142 , wall_time: '  4.75 [s] '} <<< TIME
 
 ITER STEP NUMBER     3
 Total charge density [el/Bohr^3]
)     Maximum=    9.2417E-01  at reduced coord.    0.5000    0.7333    0.0000
)     Minimum=    1.3909E-08  at reduced coord.    0.3333    0.6667    0.4222
   Integrated=    2.6000E+01
 ETOT  3  -92.364276002014     6.655E-04 1.002E-05 1.169E+01 1.082E-02 5.950E-03
 scprqt: <Vxc>= -1.4500644E-01 hartree
 
 Pulay update with  2 previous iterations:
 mixing of old trial potential: alpha(m:m-4)=  0.358      0.642      0.291E-04
{SCF_istep: 3 , Vnl|psi>: 1128 , wall_time: '  2.50 [s] '} <<< TIME
 
 ITER STEP NUMBER     4
 Total charge density [el/Bohr^3]
)     Maximum=    9.2799E-01  at reduced coord.    0.5000    0.7333    0.0000
)     Minimum=    1.4001E-08  at reduced coord.    0.3333    0.6667    0.4222
   Integrated=    2.6000E+01
 ETOT  4  -92.365230608561    -9.546E-04 6.788E-06 1.954E-01 6.569E-03 6.921E-04
 scprqt: <Vxc>= -1.4497871E-01 hartree
 
 Pulay update with  3 previous iterations:
 mixing of old trial potential: alpha(m:m-4)=  0.746E-01  0.330      0.595      0.329E-03
{SCF_istep: 4 , Vnl|psi>: 1137 , wall_time: '  2.52 [s] '} <<< TIME
 
 ITER STEP NUMBER     5
 Total charge density [el/Bohr^3]
)     Maximum=    9.2804E-01  at reduced coord.    0.5000    0.7333    0.0000
)     Minimum=    1.3900E-08  at reduced coord.    0.3333    0.6667    0.4222
   Integrated=    2.6000E+01
 ETOT  5  -92.365232139914    -1.531E-06 2.384E-07 4.839E-02 4.476E-05 6.473E-04
 scprqt: <Vxc>= -1.4496214E-01 hartree
 
 Pulay update with  4 previous iterations:
 mixing of old trial potential: alpha(m:m-4)=  0.473      0.379E-01  0.180      0.311     -0.131E-02
{SCF_istep: 5 , Vnl|psi>: 1162 , wall_time: '  2.59 [s] '} <<< TIME
 
 ITER STEP NUMBER     6
 Total charge density [el/Bohr^3]
)     Maximum=    9.2815E-01  at reduced coord.    0.5000    0.7333    0.0000
)     Minimum=    1.3901E-08  at reduced coord.    0.3333    0.6667    0.4222
   Integrated=    2.6000E+01
 ETOT  6  -92.365232279882    -1.400E-07 1.243E-08 3.432E-02 3.093E-04 9.474E-04
 scprqt: <Vxc>= -1.4496058E-01 hartree
 
 Pulay update with  5 previous iterations:
 mixing of old trial potential: alpha(m:m-4)= -0.269      0.625      0.942E-01  0.194      0.357
{SCF_istep: 6 , Vnl|psi>: 1140 , wall_time: '  2.52 [s] '} <<< TIME
 
 ITER STEP NUMBER     7
 Total charge density [el/Bohr^3]
)     Maximum=    9.2813E-01  at reduced coord.    0.5000    0.7333    0.0000
)     Minimum=    1.3895E-08  at reduced coord.    0.3333    0.6667    0.4222
   Integrated=    2.6000E+01
 ETOT  7  -92.365232407428    -1.275E-07 6.165E-09 3.400E-02 5.072E-05 8.967E-04
 scprqt: <Vxc>= -1.4496068E-01 hartree
 
 Pulay update with  6 previous iterations:
 mixing of old trial potential: alpha(m:m-4)= -0.753E-02 -0.262      0.626      0.937E-01  0.194
{SCF_istep: 7 , Vnl|psi>: 1128 , wall_time: '  2.50 [s] '} <<< TIME
 
 ITER STEP NUMBER     8
 Total charge density [el/Bohr^3]
)     Maximum=    9.2814E-01  at reduced coord.    0.5000    0.7333    0.0000
)     Minimum=    1.3894E-08  at reduced coord.    0.3333    0.6667    0.4222
   Integrated=    2.6000E+01
 ETOT  8  -92.365232402493     4.936E-09 4.699E-09 3.513E-02 8.202E-06 9.046E-04
 scprqt: <Vxc>= -1.4496079E-01 hartree
 
 Pulay update with  7 previous iterations:
 mixing of old trial potential: alpha(m:m-4)=  -4.04       3.16      0.764      0.576      0.253E-01
{SCF_istep: 8 , Vnl|psi>: 1162 , wall_time: '  2.58 [s] '} <<< TIME
 
 ITER STEP NUMBER     9
 Total charge density [el/Bohr^3]
)     Maximum=    9.2811E-01  at reduced coord.    0.5000    0.7333    0.0000
[...]
{SCF_istep: 7 , Vnl|psi>: 1162 , wall_time: '  2.64 [s] '} <<< TIME
 
 ITER STEP NUMBER     8
 Total charge density [el/Bohr^3]
)     Maximum=    1.0716E+00  at reduced coord.    0.3333    0.6667    0.0278
)     Minimum=    2.7452E-06  at reduced coord.    0.1333    0.0000    0.5111
   Integrated=    2.6000E+01
 ETOT  8  -81.153897951956    -3.002E+00 3.342E-02 1.034E+06 4.565E-01 6.596E-01
 scprqt: <Vxc>= -1.9839650E-01 hartree
 
 Pulay update with  7 previous iterations:
 mixing of old trial potential: alpha(m:m-4)=  0.276      0.274E-01  0.521      0.442      0.167E-01
{SCF_istep: 8 , Vnl|psi>: 1162 , wall_time: '  2.59 [s] '} <<< TIME
 
 ITER STEP NUMBER     9
 Total charge density [el/Bohr^3]
)     Maximum=    1.0606E+00  at reduced coord.    0.4333    0.7333    0.0222
)     Minimum=    7.2969E-07  at reduced coord.    0.4333    0.2333    0.5167
   Integrated=    2.6000E+01
 ETOT  9  -80.881029008368     2.729E-01 7.873E-03 1.057E+06 5.972E-02 6.963E-01
 scprqt: <Vxc>= -1.9637902E-01 hartree
 
 Pulay update with  7 previous iterations:
 mixing of old trial potential: alpha(m:m-4)=  0.484     -0.414E-01 -0.132      0.517      0.429
{SCF_istep: 9 , Vnl|psi>: 1141 , wall_time: '  2.57 [s] '} <<< TIME
 
 ITER STEP NUMBER    10
 Total charge density [el/Bohr^3]
)     Maximum=    1.0626E+00  at reduced coord.    0.3333    0.6667    0.0278
)     Minimum=    2.4121E-07  at reduced coord.    0.5333    0.5333    0.4833
   Integrated=    2.6000E+01
 ETOT 10  -82.582281305306    -1.701E+00 5.743E-03 9.027E+05 1.008E-01 6.117E-01
 scprqt: <Vxc>= -1.9747687E-01 hartree
 
 Pulay update with  7 previous iterations:
 mixing of old trial potential: alpha(m:m-4)=   1.32      0.104     -0.520     -0.446      0.355
 
 -------------------------------------------------------------------------------------------------
 Ekinetic   = :     3.326928E+01 Ha ,    9.053030E+02 eV
 Evext_l    = :    -2.518266E+02 Ha ,   -6.852551E+03 eV
 Evext_nl   = :     1.157460E+01 Ha ,    3.149609E+02 eV
 Epsp_core  = :     7.631172E-01 Ha ,    2.076547E+01 eV
 Ehartree   = :     1.341353E+02 Ha ,    3.650007E+03 eV
 Exc_ks     = :    -1.674548E+01 Ha ,   -4.556676E+02 eV
 Enn        = :     6.247543E+00 Ha ,    1.700043E+02 eV
 -------------------------------------------------------------------------------------------------
 Etot       = :    -8.258228E+01 Ha ,   -2.247178E+03 eV
 -------------------------------------------------------------------------------------------------
 
 Cartesian components of stress tensor (hartree/bohr^3)
  sigma(1 1)= -8.36564152E-03  sigma(3 2)= -3.12845494E-05
  sigma(2 2)= -8.26566579E-03  sigma(3 1)=  2.60686660E-05
  sigma(3 3)=  4.55984518E-03  sigma(2 1)= -2.44347942E-05
 

--- !ScfConvergenceWarning
message: |
    nstep 10 was not enough SCF cycles to converge.
...
 
 scprqt:  WARNING -
  nstep=   10 was not enough SCF cycles to converge;
  maximum force difference=  1.008E-01 exceeds toldff=  5.000E-05
 
 
 fftdatar_write: About to write data to: mos2_k_drafto_DS31_TIM10_DEN with iomode: IO_MODE_FORTRAN
 IO operation , wall:  0.01 [s] , cpu:  0.00 [s] <<< TIME
- Creating HDf5 file with MPI-IO support: mos2_k_drafto_DS31_GSR.nc
 Integrated electronic density in atomic spheres:
 ------------------------------------------------
 Atom  Sphere_radius  Integrated_density
    1        2.00000         12.47300534
    2        2.00000          2.82786754
    3        2.00000          2.50094347
 Write iteration in HIST netCDF file
 
---OUTPUT-----------------------------------------------------------------------
 
 Cartesian coordinates (xcart) [bohr]
  2.97299466552430E+00  1.69544595052932E+00  1.54009353431305E-01
  2.97830836894949E+00 -1.70530480829135E+00 -1.09833045602671E+01
  2.97765294341090E+00 -1.70851952136714E+00  1.08292952068358E+01
 Reduced coordinates (xred)
  3.34999157996266E-01  6.63884028197456E-01  4.07491198727643E-03
  6.65732909125184E-01  3.34935604526197E-01 -2.90605722414797E-01
  6.65934599545218E-01  3.34513700609689E-01  2.86530810427520E-01
 Cartesian forces (fcart) [Ha/bohr]; max,rms= 6.11725E-01 2.59359E-01 (free atoms)
 -1.89599290138629E-04 -6.87625732307360E-05  1.57381306850408E-01
  7.55117176941561E-04  7.00803208035627E-04  4.54343288163316E-01
 -5.65517886802932E-04 -6.32040634804891E-04 -6.11724595013724E-01
 Gradient of E wrt nuclear positions in reduced coordinates (gred)
  2.09827547629711E-04  9.18788262427623E-04 -5.94815136765819E+00
  1.36526589845317E-03 -5.86020458582367E-03 -1.71716876988682E+01
 -1.57509344608288E-03  4.94141632339604E-03  2.31198390665264E+01
 Total energy (etotal) [Ha]= -8.25822813053065E+01
 
 Difference of energy with previous step (new-old):
           Absolute (Ha)= 8.56469E+00
           Relative     = 9.85982E-02
 
 fconv : WARNING -
  ntime=   10 was not enough Broyd/MD steps to converge gradients: 
  max grad (force/stress) = 6.1172E-01 > tolmxf= 5.0000E-04 ha/bohr (free atoms)
 

--- !RelaxConvergenceWarning
message: | 
    
     fconv : WARNING -
      ntime=   10 was not enough Broyd/MD steps to converge gradients: 
      max grad (force/stress) = 6.1172E-01 > tolmxf= 5.0000E-04 ha/bohr (free atoms)

...
================================================================================
 
 ----iterations are completed or convergence reached----
 
 Mean square residual over all n,k,spin=   13.133E-05; max=  57.434E-04
   0.0000  0.0000  0.0000    1  1.32098E-03 kpt; spin; max resid(k); each band:
  2.50E-06 1.33E-06 1.18E-06 1.11E-06 8.00E-07 8.88E-07 5.92E-06 3.36E-05
  1.45E-05 3.39E-05 3.21E-05 2.68E-04 1.32E-03 2.87E-04
   0.1111  0.1111  0.0000    1  1.46273E-03 kpt; spin; max resid(k); each band:
  2.43E-06 3.98E-07 6.22E-07 3.78E-07 9.31E-07 9.00E-07 5.28E-06 2.35E-05
  4.02E-05 5.01E-05 2.53E-05 3.40E-05 1.46E-03 9.71E-05
   0.3333  0.0000  0.0000    1  4.77626E-04 kpt; spin; max resid(k); each band:
  2.17E-06 1.01E-06 1.76E-06 5.81E-07 9.02E-07 1.06E-06 3.51E-06 5.14E-06
  4.78E-04 2.39E-06 1.28E-04 2.34E-05 7.29E-05 1.76E-04
   0.0000  0.3333  0.0000    1  7.46796E-04 kpt; spin; max resid(k); each band:
  1.28E-06 2.92E-07 1.78E-06 1.28E-06 8.63E-07 1.10E-06 3.06E-06 5.78E-06
  5.16E-05 3.16E-06 2.35E-05 1.16E-05 8.42E-06 7.47E-04
   0.2222  0.2222  0.0000    1  4.48166E-04 kpt; spin; max resid(k); each band:
  1.70E-06 7.35E-07 9.63E-07 1.73E-07 8.45E-07 9.95E-07 3.24E-06 1.62E-05
  2.02E-05 1.56E-04 5.23E-06 5.47E-05 2.90E-04 4.48E-04
   0.4444  0.1111  0.0000    1  1.71124E-03 kpt; spin; max resid(k); each band:
  1.75E-06 1.41E-06 1.49E-06 5.72E-07 4.68E-07 7.53E-07 4.49E-06 1.29E-03
  2.97E-05 1.26E-05 6.70E-06 1.71E-03 2.39E-04 3.90E-04
   0.1111  0.4444  0.0000    1  1.82829E-04 kpt; spin; max resid(k); each band:
  2.01E-06 3.73E-07 1.61E-06 1.36E-06 4.33E-07 6.55E-07 2.16E-06 2.03E-06
  3.86E-06 2.52E-06 1.04E-05 1.68E-04 1.73E-05 1.83E-04
   0.3333  0.3333  0.0000    1  5.74343E-03 kpt; spin; max resid(k); each band:
  1.54E-06 8.16E-07 1.63E-06 1.28E-06 3.85E-07 6.32E-07 3.10E-06 7.25E-06
  5.45E-06 4.95E-06 3.24E-05 8.97E-05 1.31E-05 5.74E-03
  -0.4444  0.2222  0.0000    1  2.58236E-04 kpt; spin; max resid(k); each band:
  2.16E-06 9.10E-07 1.63E-06 1.31E-06 6.81E-07 9.97E-07 4.88E-06 2.51E-05
  7.23E-06 2.73E-05 5.49E-05 3.25E-05 1.19E-04 2.58E-04
  -0.2222  0.1111  0.0000    1  9.05814E-04 kpt; spin; max resid(k); each band:
  2.33E-06 4.12E-07 1.51E-06 1.23E-06 9.62E-07 1.03E-06 5.83E-06 2.62E-06
  2.41E-05 3.65E-05 1.64E-05 2.12E-05 9.06E-04 2.46E-04
   0.2222 -0.4444  0.0000    1  5.81374E-04 kpt; spin; max resid(k); each band:
  1.40E-06 3.20E-07 2.90E-07 3.78E-07 6.62E-07 9.60E-07 1.62E-06 1.22E-05
  7.11E-06 9.53E-05 6.68E-06 1.30E-04 5.81E-04 1.36E-04
   0.4444  0.4444  0.0000    1  6.53554E-04 kpt; spin; max resid(k); each band:
  1.49E-06 7.43E-07 6.45E-07 9.47E-07 4.30E-07 7.10E-07 3.42E-06 4.83E-04
  4.89E-05 3.30E-05 1.43E-05 6.54E-04 1.60E-04 5.59E-04
  -0.3333  0.3333  0.0000    1  1.08949E-03 kpt; spin; max resid(k); each band:
  1.80E-06 5.15E-07 1.23E-06 9.62E-07 7.68E-07 9.94E-07 3.84E-06 9.11E-06
  5.22E-05 4.40E-06 3.60E-06 2.22E-05 1.09E-03 3.31E-05
  -0.1111  0.2222  0.0000    1  1.93910E-03 kpt; spin; max resid(k); each band:
  2.42E-06 3.64E-07 1.18E-06 1.18E-06 6.52E-07 1.12E-06 6.27E-06 7.43E-06
  3.42E-05 4.98E-05 2.79E-05 2.49E-05 1.94E-03 1.19E-03
 
   outwf: writing wavefunctions to: mos2_k_drafto_DS31_WFK with iomode: IO_MODE_FORTRAN_MASTER
 WFK output , wall:  0.03 [s] , cpu:  0.03 [s] <<< TIME
 prteigrs : about to open file mos2_k_drafto_DS31_EIG
 Fermi (or HOMO) energy (hartree) =  -0.12061   Average Vxc (hartree)=  -0.19748
 Eigenvalues (hartree) for nkpt=  14  k points:
 kpt#   1, nband= 14, wtk=  0.03704, kpt=  0.0000  0.0000  0.0000 (reduced coord)
  -2.43663   -1.48032   -1.46761   -1.46443   -0.56969   -0.56533   -0.29341   -0.18677
  -0.17790   -0.17642   -0.17590   -0.16771   -0.12061   -0.08513
 kpt#   2, nband= 14, wtk=  0.07407, kpt=  0.1111  0.1111  0.0000 (reduced coord)
  -2.43619   -1.47998   -1.46920   -1.46726   -0.55309   -0.54957   -0.25879   -0.19313
  -0.17419   -0.16507   -0.16214   -0.14824   -0.14705   -0.11912
 kpt#   3, nband= 14, wtk=  0.07407, kpt=  0.3333  0.0000  0.0000 (reduced coord)
  -2.43557   -1.47973   -1.47444   -1.46738   -0.52595   -0.52398   -0.24384   -0.20243
  -0.19540   -0.19188   -0.15930   -0.14547   -0.14062   -0.12992
 kpt#   4, nband= 14, wtk=  0.07407, kpt=  0.0000  0.3333  0.0000 (reduced coord)
  -2.43557   -1.47935   -1.47295   -1.46927   -0.52586   -0.52421   -0.24460   -0.20369
  -0.19457   -0.18941   -0.15917   -0.14569   -0.14080   -0.12776
 kpt#   5, nband= 14, wtk=  0.07407, kpt=  0.2222  0.2222  0.0000 (reduced coord)
  -2.43540   -1.47934   -1.47345   -1.47070   -0.51495   -0.51399   -0.20951   -0.20586
  -0.19648   -0.19304   -0.19230   -0.14937   -0.13709   -0.13067
 kpt#   6, nband= 14, wtk=  0.07407, kpt=  0.4444  0.1111  0.0000 (reduced coord)
  -2.43523   -1.47997   -1.47618   -1.46895   -0.50303   -0.50291   -0.24280   -0.24137
  -0.23031   -0.20476   -0.14647   -0.13295   -0.12196   -0.11302
 kpt#   7, nband= 14, wtk=  0.07407, kpt=  0.1111  0.4444  0.0000 (reduced coord)
  -2.43523   -1.47903   -1.47535   -1.47074   -0.50327   -0.50289   -0.24451   -0.24199
  -0.22776   -0.20394   -0.14774   -0.14393   -0.12187   -0.11590
 kpt#   8, nband= 14, wtk=  0.07407, kpt=  0.3333  0.3333  0.0000 (reduced coord)
  -2.43512   -1.47937   -1.47485   -1.47222   -0.49575   -0.49504   -0.20366   -0.19264
  -0.18940   -0.18831   -0.18779   -0.18594   -0.18308   -0.17979
 kpt#   9, nband= 14, wtk=  0.07407, kpt= -0.4444  0.2222  0.0000 (reduced coord)
  -2.43539   -1.47974   -1.47541   -1.46835   -0.51500   -0.51374   -0.20925   -0.20510
  -0.19621   -0.19557   -0.19348   -0.14998   -0.14669   -0.12629
 kpt#  10, nband= 14, wtk=  0.07407, kpt= -0.2222  0.1111  0.0000 (reduced coord)
  -2.43619   -1.48003   -1.47093   -1.46548   -0.55311   -0.54949   -0.25822   -0.19292
  -0.17452   -0.16546   -0.16336   -0.15191   -0.14892   -0.11559
 kpt#  11, nband= 14, wtk=  0.07407, kpt=  0.2222 -0.4444  0.0000 (reduced coord)
  -2.43540   -1.47931   -1.47466   -1.46954   -0.51493   -0.51394   -0.20930   -0.20628
  -0.19593   -0.19357   -0.19292   -0.14990   -0.14484   -0.12843
 kpt#  12, nband= 14, wtk=  0.07407, kpt=  0.4444  0.4444  0.0000 (reduced coord)
  -2.43522   -1.48005   -1.47691   -1.46816   -0.50299   -0.50283   -0.24345   -0.24030
  -0.23082   -0.20551   -0.14566   -0.14209   -0.12201   -0.11166
 kpt#  13, nband= 14, wtk=  0.07407, kpt= -0.3333  0.3333  0.0000 (reduced coord)
  -2.43557   -1.47971   -1.47523   -1.46663   -0.52592   -0.52392   -0.24258   -0.20303
  -0.19610   -0.19236   -0.16080   -0.14570   -0.14072   -0.13161
 kpt#  14, nband= 14, wtk=  0.07407, kpt= -0.1111  0.2222  0.0000 (reduced coord)
  -2.43619   -1.47997   -1.47007   -1.46641   -0.55308   -0.54955   -0.25846   -0.19288
  -0.17431   -0.16521   -0.16259   -0.14919   -0.14754   -0.11925
 Total charge density [el/Bohr^3]
)     Maximum=    1.0626E+00  at reduced coord.    0.3333    0.6667    0.0278
)Next maximum=    1.0520E+00  at reduced coord.    0.3667    0.6667    0.0278
)     Minimum=    2.4121E-07  at reduced coord.    0.5333    0.5333    0.4833
)Next minimum=    2.4248E-07  at reduced coord.    0.5333    0.5000    0.4833
   Integrated=    2.6000E+01
 
 Cartesian components of stress tensor (hartree/bohr^3)
  sigma(1 1)= -8.36564152E-03  sigma(3 2)= -3.12845494E-05
  sigma(2 2)= -8.26566579E-03  sigma(3 1)=  2.60686660E-05
  sigma(3 3)=  4.55984518E-03  sigma(2 1)= -2.44347942E-05
 
-Cartesian components of stress tensor (GPa)         [Pressure=  1.1838E+02 GPa]
- sigma(1 1)= -2.46125629E+02  sigma(3 2)= -9.20423064E-01
- sigma(2 2)= -2.43184243E+02  sigma(3 1)=  7.66966504E-01
- sigma(3 3)=  1.34155254E+02  sigma(2 1)= -7.18896345E-01
 dataset: 3 , wall: 05:47 [minutes] , cpu: 05:42 [minutes] <<< TIME
 
== END DATASET(S) ==============================================================
================================================================================
  
 -outvars: echo values of variables after computation  --------
 
 These variables are accessible in NetCDF format (mos2_k_drafto_OUT.nc)

            acell      5.9526373186E+00  5.9526373186E+00  3.7794522658E+01 Bohr
              amu      9.59400000E+01  3.20660000E+01
      chksymbreak           0
             ecut      2.50000000E+01 Hartree
           etotal11   -9.2365236474E+01
           etotal21   -9.2348637846E+01
           etotal31   -8.2582281305E+01
            fcart11   -6.7801795469E-07  9.9350012717E-07  1.5770199652E-05
                       3.7193654008E-07  8.5886072911E-08  3.0408480499E-04
                       3.0608141461E-07 -1.0793862001E-06 -3.1985500464E-04
            fcart21    2.9747028542E-06 -2.5101026858E-05  1.2721749654E-04
                      -7.2444726428E-06  9.0052928345E-06  4.8456755195E-02
                       4.2697697885E-06  1.6095734024E-05 -4.8583972691E-02
            fcart31   -1.8959929014E-04 -6.8762573231E-05  1.5738130685E-01
                       7.5511717694E-04  7.0080320804E-04  4.5434328816E-01
                      -5.6551788680E-04 -6.3204063480E-04 -6.1172459501E-01
-          fftalg         512
           getwfk          -1
           ionmov           2
           istwfk        2    0    0    0    0    0    0    0    0    0
                         0    0    0    0
              ixc          11
           jdtset       11   21   31
              kpt      0.00000000E+00  0.00000000E+00  0.00000000E+00
                       1.11111111E-01  1.11111111E-01  0.00000000E+00
                       3.33333333E-01  0.00000000E+00  0.00000000E+00
                       0.00000000E+00  3.33333333E-01  0.00000000E+00
                       2.22222222E-01  2.22222222E-01  0.00000000E+00
                       4.44444444E-01  1.11111111E-01  0.00000000E+00
                       1.11111111E-01  4.44444444E-01  0.00000000E+00
                       3.33333333E-01  3.33333333E-01  0.00000000E+00
                      -4.44444444E-01  2.22222222E-01  0.00000000E+00
                      -2.22222222E-01  1.11111111E-01  0.00000000E+00
                       2.22222222E-01 -4.44444444E-01  0.00000000E+00
                       4.44444444E-01  4.44444444E-01  0.00000000E+00
                      -3.33333333E-01  3.33333333E-01  0.00000000E+00
                      -1.11111111E-01  2.22222222E-01  0.00000000E+00
         kptrlatt        3   -3    0      3    6    0      0    0    1
          kptrlen      3.09308108E+01
P           mkmem          14
            natom           3
            nband          14
           ndtset           3
            ngfft          30      30     180
             nkpt          14
            nstep          10
             nsym           1
            ntime          10
           ntypat           2
              occ      2.000000  2.000000  2.000000  2.000000  2.000000  2.000000
                       2.000000  2.000000  2.000000  2.000000  2.000000  2.000000
                       2.000000  0.000000
        optforces           1
            rprim      5.0000000000E-01 -8.6602540378E-01  0.0000000000E+00
                       5.0000000000E-01  8.6602540378E-01  0.0000000000E+00
                       0.0000000000E+00  0.0000000000E+00  1.0000000000E+00
          spgroup           1
           strten11    5.2073917181E-05  5.2071683999E-05  8.3363336140E-05
                       4.1286099318E-09  1.7225704188E-10 -4.1094250789E-12
           strten21    1.3249175942E-04  1.3242747993E-04  3.5653044993E-04
                      -1.9820041927E-08 -3.1758175145E-08  2.5179942818E-09
           strten31   -8.3656415165E-03 -8.2656657927E-03  4.5598451783E-03
                      -3.1284549352E-05  2.6068665993E-05 -2.4434794218E-05
           toldff      5.00000000E-05
           tolmxf      5.00000000E-04
            typat      1  2  2
              wtk        0.03704    0.07407    0.07407    0.07407    0.07407    0.07407
                         0.07407    0.07407    0.07407    0.07407    0.07407    0.07407
                         0.07407    0.07407
           xangst11    1.5750011936E+00  9.0932490216E-01 -2.6540549206E-05
                       1.5749992062E+00 -9.0933023578E-01 -1.5766032400E+00
                       1.5749996002E+00 -9.0932134035E-01  1.5766297805E+00
           xangst21    1.5749991962E+00  9.0938755543E-01 -1.8899434465E-04
                       1.5750496851E+00 -9.0932595161E-01 -1.7437018522E+00
                       1.5749511187E+00 -9.0938827780E-01  1.7438908465E+00
           xangst31    1.5732410183E+00  8.9719135542E-01  8.1498239746E-02
                       1.5760529090E+00 -9.0240843825E-01 -5.8121144483E+00
                       1.5757060727E+00 -9.0410959114E-01  5.7306162086E+00
            xcart11    2.9763209149E+00  1.7183750309E+00 -5.0154369416E-05
                       2.9763171593E+00 -1.7183851100E+00 -2.9793483438E+00
                       2.9763179037E+00 -1.7183683000E+00  2.9793984982E+00
            xcart21    2.9763171403E+00  1.7184934284E+00 -3.5714755205E-04
                       2.9764125506E+00 -1.7183770141E+00 -3.2951189580E+00
                       2.9762262870E+00 -1.7184947935E+00  3.2954761055E+00
            xcart31    2.9729946655E+00  1.6954459505E+00  1.5400935343E-01
                       2.9783083689E+00 -1.7053048083E+00 -1.0983304560E+01
                       2.9776529434E+00 -1.7085195214E+00  1.0829295207E+01
             xred11    3.3333403700E-01  6.6666672084E-01 -1.3270274603E-06
                       6.6666706750E-01  3.3333242851E-01 -7.8830161999E-02
                       6.6666556216E-01  3.3333418398E-01  7.8831489027E-02
             xred21    3.3332191944E-01  6.6667757019E-01 -9.4497172325E-06
                       6.6668230732E-01  3.3334923878E-01 -8.7185092608E-02
                       6.6666243990E-01  3.3330652436E-01  8.7194542325E-02
             xred31    3.3499915800E-01  6.6388402820E-01  4.0749119873E-03
                       6.6573290913E-01  3.3493560453E-01 -2.9060572241E-01
                       6.6593459955E-01  3.3451370061E-01  2.8653081043E-01
            znucl       42.00000   16.00000
 
================================================================================
  
 Proc.   0 individual time (sec): cpu=        913.9  wall=        927.8
 
 Calculation completed.
.Delivered  29 WARNINGs and  11 COMMENTs to log file.

--- !FinalSummary
program: abinit
version: 9.10.3
start_datetime: Wed May 07 07:49:37 2025
end_datetime: Wed May 07 08:05:05 2025
overall_cpu_time:         913.9
overall_wall_time:         927.8
exit_requested_by_user: no 
timelimit: 0
pseudos: 
    Mo  : 228091cb5782e08cb8d68936b3c7e57b
    S   : ee4b2e2802f5df21cf2ecc26b1029f69
usepaw: 0
mpi_procs: 1
omp_threads: 1
num_warnings: 29
num_comments: 11
...
