  ABINIT 9.10.3
  
-instrng: 54 lines of input have been read from file mos2.abi
 
 
--- !COMMENT
src_file: m_dtfil.F90
src_line: 1441
message: |
    Output file: mos2.abo already exists.
...
 
 
--- !COMMENT
src_file: m_dtfil.F90
src_line: 1465
message: |
    Renaming old: mos2.abo to: mos2.abo0003
...
 

.Version 9.10.3 of ABINIT 
.(MPI version, prepared for a x86_64_linux_intel2021.6 computer) 

.Copyright (C) 1998-2022 ABINIT group . 
 ABINIT comes with ABSOLUTELY NO WARRANTY.
 It is free software, and you are welcome to redistribute it
 under certain conditions (GNU General Public License,
 see ~abinit/COPYING or http://www.gnu.org/copyleft/gpl.txt).

 ABINIT is a project of the Universite Catholique de Louvain,
 Corning Inc. and other collaborators, see ~abinit/doc/developers/contributors.txt .
 Please read https://docs.abinit.org/theory/acknowledgments for suggested
 acknowledgments of the ABINIT effort.
 For more information, see https://www.abinit.org .

.Starting date : Wed  7 May 2025.
- ( at 08h15 )
  
 
 ++++++++++++++++++++++++++++++++++++++++++++++++++++++++++++++++++++++++++++++
 
 === Build Information === 
  Version       : 9.10.3
  Build target  : x86_64_linux_intel2021.6
  Build date    : 20240126
 
 === Compiler Suite === 
  C compiler       : intel2021.6
  C++ compiler     : gnu2021.6
  Fortran compiler : intel2021.6
  CFLAGS           : -g -O2
  CXXFLAGS         : -g -O2 -mtune=native -march=native
  FCFLAGS          : -g -extend-source -nofpscomp     -I/shared/ucl/apps/NetCDF/4.9.2-in ...
  FC_LDFLAGS       :   -static-intel -static-libgcc
 
 === Optimizations === 
  Debug level        : basic
  Optimization level : standard
  Architecture       : intel_xeon
 
 === Multicore === 
  Parallel build : /shared/ucl/apps/intel/2020/impi/2019.6.166/intel64
  Parallel I/O   : 
  openMP support : 
  GPU support    : 
 
 === Connectors / Fallbacks === 
  LINALG flavor  : mkl
  FFT flavor     : dfti
  HDF5           : yes
  NetCDF         : yes
  NetCDF Fortran : yes
  LibXC          : yes
  Wannier90      : no
 
 === Experimental features === 
  Exports             : 
  GW double-precision : 
 
 ++++++++++++++++++++++++++++++++++++++++++++++++++++++++++++++++++++++++++++++
 

 ++++++++++++++++++++++++++++++++++++++++++++++++++++++++++++++++++++++++++++++
 Default optimizations:
   -O3


 Optimizations for 43_ptgroups:
   -O0


 ++++++++++++++++++++++++++++++++++++++++++++++++++++++++++++++++++++++++++++++


 ++++++++++++++++++++++++++++++++++++++++++++++++++++++++++++++++++++++++++++++
 CPP options activated during the build:

                  CC_INTEL                   CXX_GNU                  FC_INTEL
 
                 HAVE_DFTI HAVE_FC_ALLOCATABLE_DT...             HAVE_FC_ASYNC
 
  HAVE_FC_COMMAND_ARGUMENT      HAVE_FC_COMMAND_LINE        HAVE_FC_CONTIGUOUS
 
           HAVE_FC_CPUTIME              HAVE_FC_EXIT             HAVE_FC_FLUSH
 
             HAVE_FC_GAMMA   HAVE_FC_IEEE_ARITHMETIC   HAVE_FC_IEEE_EXCEPTIONS
 
             HAVE_FC_IOMSG     HAVE_FC_ISO_C_BINDING  HAVE_FC_ISO_FORTRAN_2008
 
        HAVE_FC_LONG_LINES        HAVE_FC_MOVE_ALLOC  HAVE_FC_ON_THE_FLY_SHAPE
 
           HAVE_FC_PRIVATE         HAVE_FC_PROTECTED           HAVE_FC_SHIFTLR
 
         HAVE_FC_STREAM_IO                 HAVE_HDF5             HAVE_HDF5_MPI
 
        HAVE_LIBPAW_ABINIT      HAVE_LIBTETRA_ABINIT                HAVE_LIBXC
 
         HAVE_LINALG_AXPBY        HAVE_LINALG_GEMM3M         HAVE_LINALG_GEMMT
 
  HAVE_LINALG_MKL_IMATCOPY   HAVE_LINALG_MKL_OMATADD  HAVE_LINALG_MKL_OMATCOPY
 
   HAVE_LINALG_MKL_THREADS     HAVE_LINALG_SCALAPACK                  HAVE_MPI
 
                 HAVE_MPI2       HAVE_MPI_IALLGATHER       HAVE_MPI_IALLREDUCE
 
        HAVE_MPI_IALLTOALL       HAVE_MPI_IALLTOALLV           HAVE_MPI_IBCAST
 
         HAVE_MPI_IGATHERV        HAVE_MPI_INTEGER16               HAVE_MPI_IO
 
 HAVE_MPI_TYPE_CREATE_S...               HAVE_NETCDF       HAVE_NETCDF_FORTRAN
 
   HAVE_NETCDF_FORTRAN_MPI           HAVE_NETCDF_MPI             HAVE_OS_LINUX
 
         HAVE_TIMER_ABINIT                                                      
 ++++++++++++++++++++++++++++++++++++++++++++++++++++++++++++++++++++++++++++++

- input  file    -> mos2.abi
- output file    -> mos2.abo
- root for input  files -> mos2i
- root for output files -> mos2o
 
 Netcdf library supports MPI-IO
-instrng: 54 lines of input have been read from file mos2.abi
 
 For atom type 1, psp file is ./persudo/Mo.psp8
 For atom type 2, psp file is ./persudo/S.psp8
  read the values zionpsp= 14.0 , pspcod=   8 , lmax=   2
  read the values zionpsp=  6.0 , pspcod=   8 , lmax=   2
 
 inpspheads: deduce mpsang = 3, n1xccc = 2501.

======================================================= 
 invars1m : enter jdtset= 1
 
 symlatt: the Bravais lattice is hP (primitive hexagonal)
  xred   is defined in input file
 ingeo: takes atomic coordinates from input array xred
 
 symlatt: the Bravais lattice is hP (primitive hexagonal)
 
 symlatt: the Bravais lattice is hP (primitive hexagonal)
 
--- !COMMENT
src_file: m_symfind.F90
src_line: 995
message: |
    The Bravais lattice determined only from the primitive
    vectors, bravais(1)=  6, is more symmetric
    than the real one, iholohedry=  1, obtained by taking into
    account the atomic positions. Start deforming the primitive vector set.
...
 
 
 symlatt: the Bravais lattice is oC (one-face-centered orthorhombic)
 
--- !COMMENT
src_file: m_symfind.F90
src_line: 1004
message: |
    The Bravais lattice determined from modified primitive
    vectors, bravais(1)=  3, has a lower symmetry than before,
    but is still more symmetric than the real one, iholohedry=  1
    obtained by taking into account the atomic positions.
...
 
 
 symlatt: the Bravais lattice is aP (primitive triclinic)
 symspgr: spgroup=   1  P1   (=C1^1)

======================================================= 
 invars1m : enter jdtset= 2
 
 symlatt: the Bravais lattice is hP (primitive hexagonal)
  xred   is defined in input file
 ingeo: takes atomic coordinates from input array xred
 
 symlatt: the Bravais lattice is hP (primitive hexagonal)
 
 symlatt: the Bravais lattice is hP (primitive hexagonal)
 
--- !COMMENT
src_file: m_symfind.F90
src_line: 995
message: |
    The Bravais lattice determined only from the primitive
    vectors, bravais(1)=  6, is more symmetric
    than the real one, iholohedry=  1, obtained by taking into
    account the atomic positions. Start deforming the primitive vector set.
...
 
 
 symlatt: the Bravais lattice is oC (one-face-centered orthorhombic)
 
--- !COMMENT
src_file: m_symfind.F90
src_line: 1004
message: |
    The Bravais lattice determined from modified primitive
    vectors, bravais(1)=  3, has a lower symmetry than before,
    but is still more symmetric than the real one, iholohedry=  1
    obtained by taking into account the atomic positions.
...
 
 
 symlatt: the Bravais lattice is aP (primitive triclinic)
 symspgr: spgroup=   1  P1   (=C1^1)
 Real(R)+Recip(G) space primitive vectors, cartesian coordinates (Bohr,Bohr^-1):
 R(1)=  2.9763187 -5.1551351  0.0000000  G(1)=  0.1679928 -0.0969907  0.0000000
 R(2)=  2.9763187  5.1551351  0.0000000  G(2)=  0.1679928  0.0969907  0.0000000
 R(3)=  0.0000000  0.0000000 37.7945227  G(3)=  0.0000000  0.0000000  0.0264589
 Unit cell volume ucvol=  1.1597873E+03 bohr^3
 Unit cell volume ucvol=  1.1597873E+03 bohr^3
 Angles (23,13,12)=  9.00000000E+01  9.00000000E+01  1.20000000E+02 degrees
 Angles (23,13,12)=  9.00000000E+01  9.00000000E+01  1.20000000E+02 degrees
  9.699066788217228E-002  5.599758821079725E-002  0.225547665608976     
 
 mknormpath : total number of points on the path:       68
 
 Number of divisions for each segment of the normalized path:
 0.00000 0.00000 0.00000 ==>  0.50000 0.00000 0.00000 ( ndiv:    17 )
 0.50000 0.00000 0.00000 ==>  0.33333 0.33333 0.00000 ( ndiv:    10 )
 0.33333 0.33333 0.00000 ==>  1.00000 1.00000 1.00000 ( ndiv:    40 )
 
 
 invars2: take the default value of fband=  1.25000000E-01
 
--- !WARNING
src_file: m_invars2.F90
src_line: 2098
message: |
    nbdbuf is not specified in input, using `nbdbuf = 2*nspinor` that may be too small!
    As a consequence, the NSCF cycle may have problems to converge the last bands within nstep iterations.
    To avoid this problem specify nbdbuf in the input file and adjust nband accordingly.
...
 
 Real(R)+Recip(G) space primitive vectors, cartesian coordinates (Bohr,Bohr^-1):
 R(1)=  2.9763187 -5.1551351  0.0000000  G(1)=  0.1679928 -0.0969907  0.0000000
 R(2)=  2.9763187  5.1551351  0.0000000  G(2)=  0.1679928  0.0969907  0.0000000
 R(3)=  0.0000000  0.0000000 37.7945227  G(3)=  0.0000000  0.0000000  0.0264589
 Unit cell volume ucvol=  1.1597873E+03 bohr^3
 Unit cell volume ucvol=  1.1597873E+03 bohr^3
 Angles (23,13,12)=  9.00000000E+01  9.00000000E+01  1.20000000E+02 degrees
 Angles (23,13,12)=  9.00000000E+01  9.00000000E+01  1.20000000E+02 degrees
  9.699066788217228E-002  5.599758821079725E-002  0.225547665608976     
 
 mknormpath : total number of points on the path:       68
 
 Number of divisions for each segment of the normalized path:
 0.00000 0.00000 0.00000 ==>  0.50000 0.00000 0.00000 ( ndiv:    17 )
 0.50000 0.00000 0.00000 ==>  0.33333 0.33333 0.00000 ( ndiv:    10 )
 0.33333 0.33333 0.00000 ==>  1.00000 1.00000 1.00000 ( ndiv:    40 )
 
 
 LMac pawujat is:            0
 LMac pawujat is:            0
 For input ecut=  2.500000E+01 best grid ngfft=      30      30     180
       max ecut=  2.798318E+01
 
 ==== FFT mesh ====
  FFT mesh divisions ........................    30   30  180
  Augmented FFT divisions ...................    31   31  180
  FFT algorithm .............................   512
  FFT cache size ............................    16
 getmpw: optimal value of mpw= 6948
 For input ecut=  2.500000E+01 best grid ngfft=      30      30     180
       max ecut=  2.798318E+01
 
 ==== FFT mesh ====
  FFT mesh divisions ........................    30   30  180
  Augmented FFT divisions ...................    31   31  180
  FFT algorithm .............................   512
  FFT cache size ............................    16
 getmpw: optimal value of mpw= 6965
 
 DATASET    1 : space group P1 (#  1); Bravais aP (primitive triclinic)
 
 getdim_nloc: deduce lmnmax  =  18, lnmax  =   6,
                      lmnmaxso=  18, lnmaxso=   6.
memory: analysis of memory needs
================================================================================
 Values of the parameters that define the memory need for DATASET  1.
     intxc =       0    ionmov =       0      iscf =       7    lmnmax =       6
     lnmax =       6     mgfft =     180  mpssoang =       3    mqgrid =    8507
     natom =       3  nloc_mem =       1    nspden =       1   nspinor =       1
    nsppol =       1      nsym =       1    n1xccc =    2501    ntypat =       2
    occopt =       1   xclevel =       2
-    mband =          14        mffmem =           1         mkmem =          20
       mpw =        6948          nfft =      162000          nkpt =          20
================================================================================
P This job should need less than                      82.121 Mbytes of memory.
  Rough estimation (10% accuracy) of disk space for files :
_ WF disk file :     29.687 Mbytes ; DEN or POT disk file :      1.238 Mbytes.
================================================================================
 
 Biggest array : cg(disk), with     29.6871 MBytes.
 memana : allocated an array of     29.687 Mbytes, for testing purposes.
 memana: allocated      82.121Mbytes, for testing purposes. 
 The job will continue.
 
 DATASET    2 : space group P1 (#  1); Bravais aP (primitive triclinic)
 
 getdim_nloc: deduce lmnmax  =  18, lnmax  =   6,
                      lmnmaxso=  18, lnmaxso=   6.
memory: analysis of memory needs
================================================================================
 Values of the parameters that define the memory need for DATASET  2.
     intxc =       0    ionmov =       0      iscf =      -2    lmnmax =       6
     lnmax =       6     mgfft =     180  mpssoang =       3    mqgrid =    8507
     natom =       3  nloc_mem =       1    nspden =       1   nspinor =       1
    nsppol =       1      nsym =       1    n1xccc =    2501    ntypat =       2
    occopt =       1   xclevel =       2
-    mband =           8        mffmem =           1         mkmem =          68
       mpw =        6965          nfft =      162000          nkpt =          68
================================================================================
P This job should need less than                      94.138 Mbytes of memory.
  Rough estimation (10% accuracy) of disk space for files :
_ WF disk file :     57.817 Mbytes ; DEN or POT disk file :      1.238 Mbytes.
================================================================================
 
 Biggest array : cg(disk), with     57.8169 MBytes.
 memana : allocated an array of     57.817 Mbytes, for testing purposes.
 memana: allocated      94.138Mbytes, for testing purposes. 
 The job will continue.
--------------------------------------------------------------------------------
------------- Echo of variables that govern the present computation ------------
--------------------------------------------------------------------------------
-
- outvars: echo of selected default values                                      
-   iomode0 =  0 , fftalg0 =512 , wfoptalg0 =  0
-
- outvars: echo of global parameters not present in the input file              
-  max_nthreads =    0
-
 -outvars: echo values of preprocessed input variables --------
 
 These variables are accessible in NetCDF format (mos2o_OUT.nc)

            acell      5.9526373186E+00  5.9526373186E+00  3.7794522658E+01 Bohr
              amu      9.59400000E+01  3.20660000E+01
      chksymbreak           0
             ecut      2.50000000E+01 Hartree
           enunit1          0
           enunit2          1
-          fftalg         512
           getden1          0
           getden2         -1
             iscf1          7
             iscf2         -2
           istwfk1       4    0    0    5    0    0    0    0    0    0
                         0    0    0    0    0    0    8    0    0    9
           istwfk2       2    0    0    0    0    0    0    0    0    0
                         0    0    0    0    0    0    0    3    0    0
                         0    0    0    0    0    0    0    0    0    0
                         0    0    0    0    0    0    0    0    0    0
                         0    0    0    0    0    0    0    0    0    0
                       outvar_i_n : Printing only first  50 k-points.
              ixc          11
           jdtset        1    2
              kpt1     0.00000000E+00  0.00000000E+00  5.00000000E-01
                       1.66666667E-01  0.00000000E+00  5.00000000E-01
                       3.33333333E-01  0.00000000E+00  5.00000000E-01
                       5.00000000E-01  0.00000000E+00  5.00000000E-01
                       0.00000000E+00  1.66666667E-01  5.00000000E-01
                       1.66666667E-01  1.66666667E-01  5.00000000E-01
                       3.33333333E-01  1.66666667E-01  5.00000000E-01
                       5.00000000E-01  1.66666667E-01  5.00000000E-01
                      -3.33333333E-01  1.66666667E-01  5.00000000E-01
                      -1.66666667E-01  1.66666667E-01  5.00000000E-01
                       0.00000000E+00  3.33333333E-01  5.00000000E-01
                       1.66666667E-01  3.33333333E-01  5.00000000E-01
                       3.33333333E-01  3.33333333E-01  5.00000000E-01
                       5.00000000E-01  3.33333333E-01  5.00000000E-01
                      -3.33333333E-01  3.33333333E-01  5.00000000E-01
                      -1.66666667E-01  3.33333333E-01  5.00000000E-01
                       0.00000000E+00  5.00000000E-01  5.00000000E-01
                       1.66666667E-01  5.00000000E-01  5.00000000E-01
                       3.33333333E-01  5.00000000E-01  5.00000000E-01
                       5.00000000E-01  5.00000000E-01  5.00000000E-01
              kpt2     0.00000000E+00  0.00000000E+00  0.00000000E+00
                       2.94117647E-02  0.00000000E+00  0.00000000E+00
                       5.88235294E-02  0.00000000E+00  0.00000000E+00
                       8.82352941E-02  0.00000000E+00  0.00000000E+00
                       1.17647059E-01  0.00000000E+00  0.00000000E+00
                       1.47058824E-01  0.00000000E+00  0.00000000E+00
                       1.76470588E-01  0.00000000E+00  0.00000000E+00
                       2.05882353E-01  0.00000000E+00  0.00000000E+00
                       2.35294118E-01  0.00000000E+00  0.00000000E+00
                       2.64705882E-01  0.00000000E+00  0.00000000E+00
                       2.94117647E-01  0.00000000E+00  0.00000000E+00
                       3.23529412E-01  0.00000000E+00  0.00000000E+00
                       3.52941176E-01  0.00000000E+00  0.00000000E+00
                       3.82352941E-01  0.00000000E+00  0.00000000E+00
                       4.11764706E-01  0.00000000E+00  0.00000000E+00
                       4.41176471E-01  0.00000000E+00  0.00000000E+00
                       4.70588235E-01  0.00000000E+00  0.00000000E+00
                       5.00000000E-01  0.00000000E+00  0.00000000E+00
                       4.83333333E-01  3.33333333E-02  0.00000000E+00
                       4.66666667E-01  6.66666667E-02  0.00000000E+00
                       4.50000000E-01  1.00000000E-01  0.00000000E+00
                       4.33333333E-01  1.33333333E-01  0.00000000E+00
                       4.16666667E-01  1.66666667E-01  0.00000000E+00
                       4.00000000E-01  2.00000000E-01  0.00000000E+00
                       3.83333333E-01  2.33333333E-01  0.00000000E+00
                       3.66666667E-01  2.66666667E-01  0.00000000E+00
                       3.50000000E-01  3.00000000E-01  0.00000000E+00
                       3.33333333E-01  3.33333333E-01  0.00000000E+00
                       3.50000000E-01  3.50000000E-01  2.50000000E-02
                       3.66666667E-01  3.66666667E-01  5.00000000E-02
                       3.83333333E-01  3.83333333E-01  7.50000000E-02
                       4.00000000E-01  4.00000000E-01  1.00000000E-01
                       4.16666667E-01  4.16666667E-01  1.25000000E-01
                       4.33333333E-01  4.33333333E-01  1.50000000E-01
                       4.50000000E-01  4.50000000E-01  1.75000000E-01
                       4.66666667E-01  4.66666667E-01  2.00000000E-01
                       4.83333333E-01  4.83333333E-01  2.25000000E-01
                       5.00000000E-01  5.00000000E-01  2.50000000E-01
                       5.16666667E-01  5.16666667E-01  2.75000000E-01
                       5.33333333E-01  5.33333333E-01  3.00000000E-01
                       5.50000000E-01  5.50000000E-01  3.25000000E-01
                       5.66666667E-01  5.66666667E-01  3.50000000E-01
                       5.83333333E-01  5.83333333E-01  3.75000000E-01
                       6.00000000E-01  6.00000000E-01  4.00000000E-01
                       6.16666667E-01  6.16666667E-01  4.25000000E-01
                       6.33333333E-01  6.33333333E-01  4.50000000E-01
                       6.50000000E-01  6.50000000E-01  4.75000000E-01
                       6.66666667E-01  6.66666667E-01  5.00000000E-01
                       6.83333333E-01  6.83333333E-01  5.25000000E-01
                       7.00000000E-01  7.00000000E-01  5.50000000E-01
                       outvar_i_n : Printing only first  50 k-points.
           kptopt1          1
           kptopt2         -3
         kptrlatt        6    0    0      0    6    0      0    0    1
          kptrlen1     3.57158239E+01
          kptrlen2     3.00000000E+01
P           mkmem1         20
P           mkmem2         68
            natom           3
            nband1         14
            nband2          8
           nbdbuf1          0
           nbdbuf2          2
           ndtset           2
           ndivsm1          0
           ndivsm2         10
            ngfft          30      30     180
             nkpt1         20
             nkpt2         68
            nstep          10
             nsym           1
           ntypat           2
              occ      2.000000  2.000000  2.000000  2.000000  2.000000  2.000000
                       2.000000  2.000000  2.000000  2.000000  2.000000  2.000000
                       2.000000  0.000000
            rprim      5.0000000000E-01 -8.6602540378E-01  0.0000000000E+00
                       5.0000000000E-01  8.6602540378E-01  0.0000000000E+00
                       0.0000000000E+00  0.0000000000E+00  1.0000000000E+00
           shiftk1     0.00000000E+00  0.00000000E+00  5.00000000E-01
           shiftk2     5.00000000E-01  5.00000000E-01  5.00000000E-01
          spgroup           1
           toldfe1     1.00000000E-06 Hartree
           toldfe2     0.00000000E+00 Hartree
           tolwfr1     0.00000000E+00
           tolwfr2     1.00000000E-12
            typat      1  2  2
              wtk1       0.02778    0.05556    0.05556    0.02778    0.05556    0.05556
                         0.05556    0.05556    0.05556    0.05556    0.05556    0.05556
                         0.05556    0.05556    0.05556    0.05556    0.02778    0.05556
                         0.05556    0.02778
              wtk2       1.00000    1.00000    1.00000    1.00000    1.00000    1.00000
                         1.00000    1.00000    1.00000    1.00000    1.00000    1.00000
                         1.00000    1.00000    1.00000    1.00000    1.00000    1.00000
                         1.00000    1.00000    1.00000    1.00000    1.00000    1.00000
                         1.00000    1.00000    1.00000    1.00000    1.00000    1.00000
                         1.00000    1.00000    1.00000    1.00000    1.00000    1.00000
                         1.00000    1.00000    1.00000    1.00000    1.00000    1.00000
                         1.00000    1.00000    1.00000    1.00000    1.00000    1.00000
                         1.00000    1.00000
                       outvars : Printing only first  50 k-points.
           xangst      1.5750000000E+00  9.0932667397E-01  0.0000000000E+00
                       1.5750000000E+00 -9.0932667397E-01 -1.8388847000E+00
                       1.5750000000E+00 -9.0932667397E-01  1.8388847000E+00
            xcart      2.9763186593E+00  1.7183783791E+00  0.0000000000E+00
                       2.9763186593E+00 -1.7183783791E+00 -3.4749884730E+00
                       2.9763186593E+00 -1.7183783791E+00  3.4749884730E+00
             xred      3.3333333333E-01  6.6666666667E-01  0.0000000000E+00
                       6.6666666667E-01  3.3333333333E-01 -9.1944235000E-02
                       6.6666666667E-01  3.3333333333E-01  9.1944235000E-02
            znucl       42.00000   16.00000
 
================================================================================
 
 chkinp: Checking input parameters for consistency, jdtset=   1.
 
 chkinp: Checking input parameters for consistency, jdtset=   2.
 DATA TYPE INFORMATION: 
 REAL:      Data type name: REAL(DP) 
            Kind value:      8
            Precision:      15
            Smallest nonnegligible quantity relative to 1: 0.22204460E-015
            Smallest positive number:                      0.22250739E-307
            Largest representable number:                  0.17976931E+309
 INTEGER:   Data type name: INTEGER(default) 
            Kind value: 4
            Bit size:   32
            Largest representable number: 2147483647
 LOGICAL:   Data type name: LOGICAL 
            Kind value: 4
 CHARACTER: Data type name: CHARACTER             Kind value: 1

  ==== OpenMP parallelism is OFF ====
 
  ==== Using MPI-2 specifications ==== 
  MPI-IO support is ON
  xmpi_tag_ub ................   1073741823
  xmpi_bsize_ch ..............            1
  xmpi_bsize_int .............            4
  xmpi_bsize_sp ..............            4
  xmpi_bsize_dp ..............            8
  xmpi_bsize_spc .............            8
  xmpi_bsize_dpc .............           16
  xmpio_bsize_frm ............            4
  xmpi_address_kind ..........            8
  xmpi_offset_kind ...........            8
  MPI_WTICK ..................   4.009462137342170E-010
 
================================================================================
== DATASET  1 ==================================================================
-   mpi_nproc: 1, omp_nthreads: -1 (-1 if OMP is not activated)
 
 
--- !COMMENT
src_file: m_xgScalapack.F90
src_line: 235
message: |
    xgScalapack in auto mode
...
 
 
 getdim_nloc: deduce lmnmax  =  18, lnmax  =   6,
                      lmnmaxso=  18, lnmaxso=   6.
 Exchange-correlation functional for the present dataset will be:
  GGA: Perdew-Burke-Ernzerhof functional - ixc=11
 Citation for XC functional:
  J.P.Perdew, K.Burke, M.Ernzerhof, PRL 77, 3865 (1996)
 
 Unit cell volume ucvol=  1.1597873E+03 bohr^3
 Angles (23,13,12)=  9.00000000E+01  9.00000000E+01  1.20000000E+02 degrees
 
 getcut: wavevector=  0.0000  0.0000  0.0000  ngfft=  30  30 180
         ecut(hartree)=     25.000   => boxcut(ratio)=   2.11597
- pspini: atom type   1  psp file is ./persudo/Mo.psp8
- pspatm: opening atomic psp file    ./persudo/Mo.psp8
- Mo    ONCVPSP-3.2.3.1  r_core=   1.45541   1.45541   1.35488
- 42.00000  14.00000    170510                znucl, zion, pspdat
    8   11    2    4       600   0.00000      pspcod,pspxc,lmax,lloc,mmax,r2well
    5.99000000000000    3.00000000000000    0.00000000000000   rchrg,fchrg,qchrg
     nproj     2     2     2
     extension_switch     1
  valence charge (before rescaling) integrates to:    13.9106199290666     
  pspatm : epsatm=   15.95693586
         --- l  ekb(1:nproj) -->
             0   13.833287    1.350687
             1    8.015347    1.134034
             2    2.765699    0.969071
 pspatm: atomic psp has been read  and splines computed
 
- pspini: atom type   2  psp file is ./persudo/S.psp8
- pspatm: opening atomic psp file    ./persudo/S.psp8
- S     ONCVPSP-4.0.1  r_core=   1.45687   1.45687   1.45687
- 16.00000   6.00000    220131                znucl, zion, pspdat
    8   11    2    4       600   0.00000      pspcod,pspxc,lmax,lloc,mmax,r2well
    5.99000000000000    6.00000000000000    0.00000000000000   rchrg,fchrg,qchrg
     nproj     2     2     2
     extension_switch     1
  valence charge (before rescaling) integrates to:    5.98952054080779     
  pspatm : epsatm=    9.04179351
         --- l  ekb(1:nproj) -->
             0    6.774234    0.542270
             1    3.022426    0.737017
             2   -5.033160   -1.531047
 pspatm: atomic psp has been read  and splines computed
 
   8.85053595E+02                                ecore*ucvol(ha*bohr**3)
 ==== Info on pseudopotentials ====
  Norm-conserving pseudopotentials
  Number of pseudopotentials ..    2
  Number of types of atoms   ..    2
  Scalar calculation (no spin-orbit term)
  Nonlocal part applied using Legendre polynomials
  Max number of non-local projectors over l and type   2
  Highest angular momentum +1 .......   3
  Max number of (l,n)   components ..   6
  Max number of (l,m,n) components ..   6
 
 Pseudo-Core Charge Info: 
   Number of radial points for pseudo-core charge .. 2501
   XC core-correction treatment (optnlxccc) ........    1
   Radius for pseudo-core charge for each type ..... 
 
  - Atom type    1 has pseudo-core radius ..  5.9900
  - Atom type    2 has pseudo-core radius ..  5.9900
 
 Info on the Q-grid used for form factors in spline form: 
   Number of q-points for radial functions ffspl ..   8507
   Number of q-points for vlspl ...................   8507
   vloc is computed in Reciprocal Space
   model core charge treated in real-space
 
  XC functional for type 1 is 11
  Pseudo valence available: yes
  XC functional for type 2 is 11
  Pseudo valence available: yes
 
 wfconv:    14 bands initialized randomly with npw=  3481, for ikpt=     1
 wfconv:    14 bands initialized randomly with npw=  6948, for ikpt=     2
 wfconv:    14 bands initialized randomly with npw=  6912, for ikpt=     3
 wfconv:    14 bands initialized randomly with npw=  3460, for ikpt=     4
 wfconv:    14 bands initialized randomly with npw=  6948, for ikpt=     5
 wfconv:    14 bands initialized randomly with npw=  6912, for ikpt=     6
 wfconv:    14 bands initialized randomly with npw=  6914, for ikpt=     7
 wfconv:    14 bands initialized randomly with npw=  6914, for ikpt=     8
 wfconv:    14 bands initialized randomly with npw=  6912, for ikpt=     9
 wfconv:    14 bands initialized randomly with npw=  6948, for ikpt=    10
 wfconv:    14 bands initialized randomly with npw=  6912, for ikpt=    11
 wfconv:    14 bands initialized randomly with npw=  6914, for ikpt=    12
 wfconv:    14 bands initialized randomly with npw=  6918, for ikpt=    13
 wfconv:    14 bands initialized randomly with npw=  6914, for ikpt=    14
 wfconv:    14 bands initialized randomly with npw=  6912, for ikpt=    15
 wfconv:    14 bands initialized randomly with npw=  6912, for ikpt=    16
 wfconv:    14 bands initialized randomly with npw=  3460, for ikpt=    17
 wfconv:    14 bands initialized randomly with npw=  6914, for ikpt=    18
 wfconv:    14 bands initialized randomly with npw=  6914, for ikpt=    19
 wfconv:    14 bands initialized randomly with npw=  3460, for ikpt=    20
_setup2: Arith. and geom. avg. npw (full set) are    6921.056    6921.040
 initro: for itypat=  1, take pseudo charge density from pp file
 initro: for itypat=  2, take pseudo charge density from pp file
 
================================================================================
 
 getcut: wavevector=  0.0000  0.0000  0.0000  ngfft=  30  30 180
         ecut(hartree)=     25.000   => boxcut(ratio)=   2.11597
 
 1/G**2 cut-off applied in the following step : cutoff-mode = CRYSTAL
 
 1/G**2 cut-off applied in the following step : cutoff-mode = CRYSTAL
 
 1/G**2 cut-off applied in the following step : cutoff-mode = CRYSTAL
 
--- !WARNING
src_file: m_drivexc.F90
src_line: 783
message: |
    Density went too small (lower than xc_denpos) at 28031 points
    and was set to xc_denpos =   1.00E-14. Lowest was  -0.38E-05.
    This might be due to (1) too low boxcut or (2) too low ecut for
     pseudopotential core charge, or (3) too low ecut for estimated initial density.
     Possible workarounds : increase ecut, or define the input variable densty,
     with a value larger than the guess for the decay length, or initialize your,
     density with a preliminary LDA or GGA-PBE if you are using a more exotic xc functional.
...
 
 
 ITER STEP NUMBER     1
 Max number of non-self-consistent loops: 2
 Total charge density [el/Bohr^3]
)     Maximum=    8.4396E-01  at reduced coord.    0.3333    0.6667    0.0222
)     Minimum=    4.6701E-05  at reduced coord.    0.1667    0.8000    0.3778
   Integrated=    2.6000E+01
 
 1/G**2 cut-off applied in the following step : cutoff-mode = CRYSTAL
 ETOT  1  -91.480349559361    -9.148E+01 8.062E-02 9.289E+03
 scprqt: <Vxc>= -1.7836396E-01 hartree
 
 Simple mixing update:
  residual square of the potential:    605.206612545862
{SCF_istep: 1 , Vnl|psi>: 2800 , wall_time: '  8.62 [s] '} <<< TIME
 
 ITER STEP NUMBER     2
 Max number of non-self-consistent loops: 2
 Total charge density [el/Bohr^3]
)     Maximum=    1.2181E+00  at reduced coord.    0.2333    0.7333    0.0000
)     Minimum=    5.6157E-07  at reduced coord.    0.8333    0.0333    0.5222
   Integrated=    2.6000E+01
 ETOT  2  -86.258678015669     5.222E+00 3.975E-02 9.043E+04
 scprqt: <Vxc>= -1.4656051E-01 hartree
 
 Pulay update with  1 previous iterations:
 mixing of old trial potential: alpha(m:m-4)=  0.253      0.747
{SCF_istep: 2 , Vnl|psi>: 2788 , wall_time: '  6.12 [s] '} <<< TIME
 
 ITER STEP NUMBER     3
 Total charge density [el/Bohr^3]
)     Maximum=    9.3606E-01  at reduced coord.    0.2667    0.5000    0.0000
)     Minimum=    3.3314E-07  at reduced coord.    0.6000    0.8667    0.3611
   Integrated=    2.6000E+01
 ETOT  3  -92.226478283357    -5.968E+00 6.148E-02 1.790E+03
 scprqt: <Vxc>= -1.5417440E-01 hartree
 
 Pulay update with  2 previous iterations:
 mixing of old trial potential: alpha(m:m-4)=  0.273      0.164      0.563
{SCF_istep: 3 , Vnl|psi>: 1340 , wall_time: '  3.06 [s] '} <<< TIME
 
 ITER STEP NUMBER     4
 Total charge density [el/Bohr^3]
)     Maximum=    9.2680E-01  at reduced coord.    0.2667    0.5000    0.0000
)     Minimum=    4.8445E-08  at reduced coord.    0.9667    0.1333    0.5667
   Integrated=    2.6000E+01
 ETOT  4  -92.296279099902    -6.980E-02 6.149E-03 9.020E+02
 scprqt: <Vxc>= -1.5110529E-01 hartree
 
 Pulay update with  3 previous iterations:
 mixing of old trial potential: alpha(m:m-4)=  0.356      0.138      0.103      0.403
{SCF_istep: 4 , Vnl|psi>: 1399 , wall_time: '  3.18 [s] '} <<< TIME
 
 ITER STEP NUMBER     5
 Total charge density [el/Bohr^3]
)     Maximum=    9.2080E-01  at reduced coord.    0.3333    0.6667    0.9778
)     Minimum=    1.8355E-08  at reduced coord.    0.6667    0.5333    0.5000
   Integrated=    2.6000E+01
 ETOT  5  -92.314835319943    -1.856E-02 3.698E-03 4.689E+02
 scprqt: <Vxc>= -1.5065898E-01 hartree
 
 Pulay update with  4 previous iterations:
 mixing of old trial potential: alpha(m:m-4)=  0.522      0.855E-01  0.476E-01  0.663E-01  0.279
{SCF_istep: 5 , Vnl|psi>: 1361 , wall_time: '  3.11 [s] '} <<< TIME
 
 ITER STEP NUMBER     6
 Total charge density [el/Bohr^3]
)     Maximum=    9.2098E-01  at reduced coord.    0.3333    0.6667    0.9778
)     Minimum=    1.5981E-08  at reduced coord.    0.3333    0.6667    0.5000
   Integrated=    2.6000E+01
 ETOT  6  -92.319309559511    -4.474E-03 2.888E-03 3.349E+02
 scprqt: <Vxc>= -1.5058829E-01 hartree
 
 Pulay update with  5 previous iterations:
 mixing of old trial potential: alpha(m:m-4)=  0.710      0.119     -0.468E-01 -0.722E-02  0.406E-01
{SCF_istep: 6 , Vnl|psi>: 1399 , wall_time: '  3.18 [s] '} <<< TIME
 
 ITER STEP NUMBER     7
 Total charge density [el/Bohr^3]
)     Maximum=    9.1992E-01  at reduced coord.    0.3333    0.6667    0.9778
)     Minimum=    1.5077E-08  at reduced coord.    0.3333    0.6667    0.5000
   Integrated=    2.6000E+01
 ETOT  7  -92.323004224500    -3.695E-03 2.026E-03 2.206E+02
 scprqt: <Vxc>= -1.5068356E-01 hartree
 
 Pulay update with  6 previous iterations:
 mixing of old trial potential: alpha(m:m-4)=  0.706      0.431     -0.862E-01 -0.117     -0.496E-01
{SCF_istep: 7 , Vnl|psi>: 1400 , wall_time: '  3.20 [s] '} <<< TIME
 
 ITER STEP NUMBER     8
 Total charge density [el/Bohr^3]
)     Maximum=    9.1924E-01  at reduced coord.    0.3333    0.6667    0.9778
)     Minimum=    1.4927E-08  at reduced coord.    0.3333    0.6667    0.5000
   Integrated=    2.6000E+01
 ETOT  8  -92.325343082155    -2.339E-03 1.246E-03 1.374E+02
 scprqt: <Vxc>= -1.5078592E-01 hartree
 
 Pulay update with  7 previous iterations:
 mixing of old trial potential: alpha(m:m-4)=  0.525      0.428      0.252     -0.697E-01 -0.126
{SCF_istep: 8 , Vnl|psi>: 1400 , wall_time: '  3.18 [s] '} <<< TIME
 
 ITER STEP NUMBER     9
 Total charge density [el/Bohr^3]
)     Maximum=    9.1861E-01  at reduced coord.    0.3333    0.6667    0.9778
)     Minimum=    1.4899E-08  at reduced coord.    0.3333    0.6667    0.5000
   Integrated=    2.6000E+01
 ETOT  9  -92.326466082249    -1.123E-03 8.595E-04 9.254E+01
 scprqt: <Vxc>= -1.5087883E-01 hartree
 
 Pulay update with  7 previous iterations:
 mixing of old trial potential: alpha(m:m-4)=  0.573      0.287      0.135      0.219     -0.208E-01
{SCF_istep: 9 , Vnl|psi>: 1400 , wall_time: '  3.18 [s] '} <<< TIME
 
 ITER STEP NUMBER    10
 Total charge density [el/Bohr^3]
)     Maximum=    9.1821E-01  at reduced coord.    0.3333    0.6667    0.9778
)     Minimum=    1.4837E-08  at reduced coord.    0.3333    0.6667    0.5000
   Integrated=    2.6000E+01
 ETOT 10  -92.327268561664    -8.025E-04 4.617E-04 5.547E+01
 scprqt: <Vxc>= -1.5096078E-01 hartree
 
 Pulay update with  7 previous iterations:
 mixing of old trial potential: alpha(m:m-4)=  0.603      0.422     -0.112      0.240E-01  0.179
 
 -------------------------------------------------------------------------------------------------
 Ekinetic   = :     2.958746E+01 Ha ,    8.051157E+02 eV
 Evext_l    = :    -5.738852E+02 Ha ,   -1.561621E+04 eV
 Evext_nl   = :     1.157342E+01 Ha ,    3.149287E+02 eV
 Epsp_core  = :     7.631172E-01 Ha ,    2.076547E+01 eV
 Ehartree   = :     2.665113E+02 Ha ,    7.252141E+03 eV
 Exc_ks     = :    -1.645055E+01 Ha ,   -4.476423E+02 eV
 Enn        = :     1.895732E+02 Ha ,    5.158549E+03 eV
 -------------------------------------------------------------------------------------------------
 Etot       = :    -9.232727E+01 Ha ,   -2.512353E+03 eV
 -------------------------------------------------------------------------------------------------
 
 Cartesian components of stress tensor (hartree/bohr^3)
  sigma(1 1)=  1.44588344E-04  sigma(3 2)=  4.91456760E-08
  sigma(2 2)=  1.46039963E-04  sigma(3 1)=  5.92466625E-08
  sigma(3 3)=  4.23516937E-04  sigma(2 1)= -4.02028263E-07
 

--- !ScfConvergenceWarning
message: |
    nstep 10 was not enough SCF cycles to converge.
...
 
 scprqt:  WARNING -
  nstep=   10 was not enough SCF cycles to converge;
  maximum energy difference=  8.025E-04 exceeds toldfe=  1.000E-06
 
 
 fftdatar_write: About to write data to: mos2o_DS1_DEN with iomode: IO_MODE_FORTRAN
 IO operation , wall:  0.04 [s] , cpu:  0.00 [s] <<< TIME
- Creating HDf5 file with MPI-IO support: mos2o_DS1_GSR.nc
 Integrated electronic density in atomic spheres:
 ------------------------------------------------
 Atom  Sphere_radius  Integrated_density
    1        2.00000         10.42085540
    2        2.00000          3.81736720
    3        2.00000          3.81685325
================================================================================
 
 ----iterations are completed or convergence reached----
 
 
 === Gap info ===
  >>>> For spin  1
   Minimum direct gap =   1.5660 [eV], located at k-point      :   0.1667  0.1667  0.5000
   Fundamental gap    =   1.0082 [eV], Top of valence bands at :   0.3333  0.3333  0.5000
                                       Bottom of conduction at :   0.1667  0.1667  0.5000
 Mean square residual over all n,k,spin=   34.342E-07; max=  46.167E-05
   0.0000  0.0000  0.5000    1  4.76809E-05 kpt; spin; max resid(k); each band:
  8.43E-09 2.89E-09 2.90E-09 1.44E-09 3.75E-07 2.30E-07 7.70E-07 2.47E-07
  3.66E-07 4.72E-07 5.96E-07 1.51E-06 1.28E-06 4.77E-05
   0.1667  0.0000  0.5000    1  5.06656E-06 kpt; spin; max resid(k); each band:
  8.56E-09 2.63E-09 3.76E-09 1.87E-09 3.73E-07 2.48E-07 7.56E-07 6.42E-07
  3.98E-07 9.83E-07 6.83E-07 7.92E-07 5.09E-07 5.07E-06
   0.3333  0.0000  0.5000    1  7.97285E-06 kpt; spin; max resid(k); each band:
  8.99E-09 7.86E-09 2.39E-09 1.23E-09 3.43E-07 2.82E-07 4.70E-07 3.90E-07
  5.10E-07 3.41E-07 5.69E-07 4.00E-07 4.92E-06 7.97E-06
   0.5000  0.0000  0.5000    1  1.56938E-04 kpt; spin; max resid(k); each band:
  9.80E-09 8.46E-09 1.94E-09 1.04E-09 2.99E-07 3.20E-07 3.63E-07 2.01E-07
  5.29E-07 5.21E-07 5.41E-07 5.23E-07 8.89E-07 1.57E-04
   0.0000  0.1667  0.5000    1  2.51698E-06 kpt; spin; max resid(k); each band:
  8.40E-09 2.80E-09 3.10E-09 3.49E-09 3.73E-07 2.49E-07 7.53E-07 6.59E-07
  3.99E-07 9.27E-07 7.33E-07 8.27E-07 5.05E-07 2.52E-06
   0.1667  0.1667  0.5000    1  1.29161E-06 kpt; spin; max resid(k); each band:
  8.08E-09 2.31E-09 5.25E-09 3.06E-09 3.54E-07 2.74E-07 6.50E-07 4.36E-07
  5.92E-07 5.22E-07 7.53E-07 4.00E-07 1.29E-06 1.22E-06
   0.3333  0.1667  0.5000    1  4.61675E-04 kpt; spin; max resid(k); each band:
  7.45E-09 7.31E-09 2.02E-09 2.53E-09 2.82E-07 3.28E-07 3.20E-07 2.80E-07
  6.11E-07 5.73E-07 4.91E-07 4.43E-07 6.24E-07 4.62E-04
   0.5000  0.1667  0.5000    1  5.10811E-06 kpt; spin; max resid(k); each band:
  8.10E-09 7.54E-09 2.03E-09 2.22E-09 2.82E-07 3.29E-07 3.29E-07 2.72E-07
  6.14E-07 5.49E-07 4.80E-07 4.52E-07 7.16E-07 5.11E-06
  -0.3333  0.1667  0.5000    1  2.21813E-06 kpt; spin; max resid(k); each band:
  8.18E-09 2.30E-09 6.04E-09 2.23E-09 3.54E-07 2.75E-07 6.46E-07 4.36E-07
  5.91E-07 5.04E-07 7.54E-07 4.21E-07 1.23E-06 2.22E-06
  -0.1667  0.1667  0.5000    1  1.92207E-06 kpt; spin; max resid(k); each band:
  8.44E-09 2.81E-09 4.05E-09 1.72E-09 3.73E-07 2.50E-07 7.52E-07 6.61E-07
  3.94E-07 9.91E-07 7.16E-07 7.65E-07 5.06E-07 1.92E-06
   0.0000  0.3333  0.5000    1  4.36794E-06 kpt; spin; max resid(k); each band:
  7.99E-09 6.27E-09 2.31E-09 3.70E-09 3.42E-07 2.84E-07 4.63E-07 3.99E-07
  5.10E-07 3.38E-07 5.94E-07 4.01E-07 4.37E-06 1.38E-06
   0.1667  0.3333  0.5000    1  1.52407E-05 kpt; spin; max resid(k); each band:
  7.23E-09 6.30E-09 1.95E-09 4.13E-09 2.82E-07 3.30E-07 3.28E-07 2.81E-07
  6.02E-07 5.49E-07 4.76E-07 4.58E-07 6.50E-07 1.52E-05
   0.3333  0.3333  0.5000    1  2.80849E-05 kpt; spin; max resid(k); each band:
  7.73E-09 6.77E-09 4.65E-09 2.79E-09 3.01E-07 3.07E-07 3.72E-07 1.87E-07
  3.11E-07 7.10E-07 2.33E-08 6.61E-07 3.27E-07 2.81E-05
   0.5000  0.3333  0.5000    1  1.02605E-04 kpt; spin; max resid(k); each band:
  7.38E-09 6.92E-09 1.92E-09 3.11E-09 2.81E-07 3.32E-07 3.34E-07 2.66E-07
  6.19E-07 5.52E-07 4.85E-07 4.37E-07 8.95E-07 1.03E-04
  -0.3333  0.3333  0.5000    1  4.74045E-06 kpt; spin; max resid(k); each band:
  8.01E-09 7.03E-09 2.28E-09 1.98E-09 3.43E-07 2.85E-07 4.67E-07 3.89E-07
  4.99E-07 3.50E-07 5.76E-07 4.01E-07 4.74E-06 3.71E-06
  -0.1667  0.3333  0.5000    1  1.38276E-06 kpt; spin; max resid(k); each band:
  8.09E-09 2.36E-09 4.38E-09 2.59E-09 3.54E-07 2.76E-07 6.41E-07 4.32E-07
  6.34E-07 5.02E-07 7.52E-07 4.20E-07 1.38E-06 9.56E-07
   0.0000  0.5000  0.5000    1  2.97110E-06 kpt; spin; max resid(k); each band:
  8.63E-09 6.40E-09 2.60E-09 3.60E-09 3.01E-07 3.18E-07 3.66E-07 1.93E-07
  5.19E-07 5.23E-07 5.38E-07 4.64E-07 2.04E-06 2.97E-06
   0.1667  0.5000  0.5000    1  3.60578E-06 kpt; spin; max resid(k); each band:
  7.92E-09 5.61E-09 1.85E-09 3.85E-09 2.82E-07 3.31E-07 3.28E-07 2.70E-07
  6.06E-07 5.52E-07 4.68E-07 4.54E-07 6.67E-07 3.61E-06
   0.3333  0.5000  0.5000    1  2.98119E-06 kpt; spin; max resid(k); each band:
  7.84E-09 6.11E-09 1.83E-09 3.10E-09 2.81E-07 3.32E-07 3.32E-07 2.65E-07
  5.99E-07 5.59E-07 4.73E-07 4.58E-07 6.58E-07 2.98E-06
   0.5000  0.5000  0.5000    1  4.44365E-06 kpt; spin; max resid(k); each band:
  8.48E-09 6.79E-09 1.84E-09 1.92E-09 3.03E-07 3.18E-07 3.67E-07 1.82E-07
  5.09E-07 5.39E-07 5.34E-07 4.61E-07 1.08E-06 4.44E-06
 
   outwf: writing wavefunctions to: mos2o_DS1_WFK with iomode: IO_MODE_FORTRAN_MASTER
 WFK output , wall:  0.08 [s] , cpu:  0.05 [s] <<< TIME
 prteigrs : about to open file mos2o_DS1_EIG
 Fermi (or HOMO) energy (hartree) =  -0.06962   Average Vxc (hartree)=  -0.15096
 Eigenvalues (hartree) for nkpt=  20  k points:
 kpt#   1, nband= 14, wtk=  0.02778, kpt=  0.0000  0.0000  0.5000 (reduced coord)
  -2.31586   -1.36222   -1.35219   -1.35211   -0.56699   -0.54307   -0.25929   -0.15732
  -0.12154   -0.12152   -0.10472   -0.08584   -0.08580    0.01808
 kpt#   2, nband= 14, wtk=  0.05556, kpt=  0.1667  0.0000  0.5000 (reduced coord)
  -2.31548   -1.36164   -1.35541   -1.35292   -0.55286   -0.53366   -0.24075   -0.17053
  -0.15503   -0.10760   -0.10722   -0.10565   -0.10318   -0.01677
 kpt#   3, nband= 14, wtk=  0.05556, kpt=  0.3333  0.0000  0.5000 (reduced coord)
  -2.31469   -1.36184   -1.36050   -1.35436   -0.51856   -0.51114   -0.23047   -0.21073
  -0.19938   -0.14768   -0.13425   -0.11102   -0.08430   -0.01202
 kpt#   4, nband= 14, wtk=  0.02778, kpt=  0.5000  0.0000  0.5000 (reduced coord)
  -2.31433   -1.36516   -1.35979   -1.35516   -0.49702   -0.49594   -0.26328   -0.24027
  -0.20007   -0.15725   -0.14569   -0.09966   -0.07984    0.01762
 kpt#   5, nband= 14, wtk=  0.05556, kpt=  0.0000  0.1667  0.5000 (reduced coord)
  -2.31548   -1.36164   -1.35538   -1.35296   -0.55286   -0.53366   -0.24075   -0.17052
  -0.15502   -0.10759   -0.10722   -0.10567   -0.10318   -0.01677
 kpt#   6, nband= 14, wtk=  0.05556, kpt=  0.1667  0.1667  0.5000 (reduced coord)
  -2.31488   -1.36074   -1.35954   -1.35473   -0.52832   -0.51737   -0.21675   -0.19306
  -0.18540   -0.16756   -0.12079   -0.11203   -0.09012   -0.03257
 kpt#   7, nband= 14, wtk=  0.05556, kpt=  0.3333  0.1667  0.5000 (reduced coord)
  -2.31433   -1.36343   -1.35986   -1.35688   -0.49713   -0.49709   -0.24262   -0.22879
  -0.19265   -0.17462   -0.14370   -0.14215   -0.08121   -0.00548
 kpt#   8, nband= 14, wtk=  0.05556, kpt=  0.5000  0.1667  0.5000 (reduced coord)
  -2.31433   -1.36345   -1.35986   -1.35686   -0.49713   -0.49709   -0.24263   -0.22878
  -0.19264   -0.17466   -0.14367   -0.14215   -0.08119   -0.00695
 kpt#   9, nband= 14, wtk=  0.05556, kpt= -0.3333  0.1667  0.5000 (reduced coord)
  -2.31488   -1.36074   -1.35961   -1.35466   -0.52832   -0.51737   -0.21674   -0.19306
  -0.18542   -0.16756   -0.12079   -0.11201   -0.09011   -0.03255
 kpt#  10, nband= 14, wtk=  0.05556, kpt= -0.1667  0.1667  0.5000 (reduced coord)
  -2.31548   -1.36164   -1.35545   -1.35289   -0.55286   -0.53366   -0.24075   -0.17054
  -0.15502   -0.10759   -0.10723   -0.10564   -0.10317   -0.01679
 kpt#  11, nband= 14, wtk=  0.05556, kpt=  0.0000  0.3333  0.5000 (reduced coord)
  -2.31469   -1.36180   -1.36050   -1.35440   -0.51856   -0.51114   -0.23047   -0.21071
  -0.19937   -0.14769   -0.13427   -0.11103   -0.08431   -0.01202
 kpt#  12, nband= 14, wtk=  0.05556, kpt=  0.1667  0.3333  0.5000 (reduced coord)
  -2.31433   -1.36340   -1.35986   -1.35691   -0.49713   -0.49709   -0.24262   -0.22877
  -0.19265   -0.17464   -0.14370   -0.14216   -0.08122   -0.00692
 kpt#  13, nband= 14, wtk=  0.05556, kpt=  0.3333  0.3333  0.5000 (reduced coord)
  -2.31415   -1.36150   -1.36084   -1.35960   -0.48902   -0.48539   -0.23712   -0.22320
  -0.20158   -0.18191   -0.17701   -0.16264   -0.06962    0.00268
 kpt#  14, nband= 14, wtk=  0.05556, kpt=  0.5000  0.3333  0.5000 (reduced coord)
  -2.31433   -1.36348   -1.35986   -1.35683   -0.49713   -0.49709   -0.24262   -0.22878
  -0.19263   -0.17465   -0.14368   -0.14215   -0.08119   -0.00672
 kpt#  15, nband= 14, wtk=  0.05556, kpt= -0.3333  0.3333  0.5000 (reduced coord)
  -2.31469   -1.36187   -1.36050   -1.35433   -0.51856   -0.51115   -0.23045   -0.21074
  -0.19938   -0.14767   -0.13424   -0.11101   -0.08431   -0.01205
 kpt#  16, nband= 14, wtk=  0.05556, kpt= -0.1667  0.3333  0.5000 (reduced coord)
  -2.31488   -1.36074   -1.35958   -1.35470   -0.52832   -0.51737   -0.21675   -0.19305
  -0.18541   -0.16755   -0.12080   -0.11203   -0.09012   -0.03256
 kpt#  17, nband= 14, wtk=  0.02778, kpt=  0.0000  0.5000  0.5000 (reduced coord)
  -2.31433   -1.36512   -1.35979   -1.35520   -0.49702   -0.49594   -0.26328   -0.24025
  -0.20008   -0.15725   -0.14570   -0.09967   -0.07985    0.01661
 kpt#  18, nband= 14, wtk=  0.05556, kpt=  0.1667  0.5000  0.5000 (reduced coord)
  -2.31433   -1.36341   -1.35986   -1.35690   -0.49713   -0.49709   -0.24262   -0.22877
  -0.19265   -0.17465   -0.14369   -0.14216   -0.08121   -0.00696
 kpt#  19, nband= 14, wtk=  0.05556, kpt=  0.3333  0.5000  0.5000 (reduced coord)
  -2.31433   -1.36346   -1.35986   -1.35684   -0.49713   -0.49709   -0.24262   -0.22878
  -0.19264   -0.17463   -0.14370   -0.14216   -0.08120   -0.00698
 kpt#  20, nband= 14, wtk=  0.02778, kpt=  0.5000  0.5000  0.5000 (reduced coord)
  -2.31433   -1.36519   -1.35979   -1.35513   -0.49702   -0.49594   -0.26328   -0.24027
  -0.20005   -0.15725   -0.14568   -0.09965   -0.07985    0.01658
 Total charge density [el/Bohr^3]
)     Maximum=    9.1821E-01  at reduced coord.    0.3333    0.6667    0.9778
)Next maximum=    9.1820E-01  at reduced coord.    0.3333    0.6667    0.0222
)     Minimum=    1.4837E-08  at reduced coord.    0.3333    0.6667    0.5000
)Next minimum=    1.5192E-08  at reduced coord.    0.4667    0.4000    0.5000
   Integrated=    2.6000E+01
 
 Cartesian components of stress tensor (hartree/bohr^3)
  sigma(1 1)=  1.44588344E-04  sigma(3 2)=  4.91456760E-08
  sigma(2 2)=  1.46039963E-04  sigma(3 1)=  5.92466625E-08
  sigma(3 3)=  4.23516937E-04  sigma(2 1)= -4.02028263E-07
 
-Cartesian components of stress tensor (GPa)         [Pressure= -7.0036E+00 GPa]
- sigma(1 1)=  4.25393524E+00  sigma(3 2)=  1.44591547E-03
- sigma(2 2)=  4.29664334E+00  sigma(3 1)=  1.74309670E-03
- sigma(3 3)=  1.24602964E+01  sigma(2 1)= -1.18280779E-02
 dataset: 1 , wall: 44.10 [s] , cpu: 43.31 [s] <<< TIME
 
================================================================================
== DATASET  2 ==================================================================
-   mpi_nproc: 1, omp_nthreads: -1 (-1 if OMP is not activated)
 
 
--- !COMMENT
src_file: m_xgScalapack.F90
src_line: 235
message: |
    xgScalapack in auto mode
...
 
 mkfilename : getden/=0, take file _DEN from output of DATASET   1.
 
 
 getdim_nloc: deduce lmnmax  =  18, lnmax  =   6,
                      lmnmaxso=  18, lnmaxso=   6.
 Exchange-correlation functional for the present dataset will be:
  GGA: Perdew-Burke-Ernzerhof functional - ixc=11
 Citation for XC functional:
  J.P.Perdew, K.Burke, M.Ernzerhof, PRL 77, 3865 (1996)
 
 Unit cell volume ucvol=  1.1597873E+03 bohr^3
 Angles (23,13,12)=  9.00000000E+01  9.00000000E+01  1.20000000E+02 degrees
 
 getcut: wavevector=  0.0000  0.0000  0.0000  ngfft=  30  30 180
         ecut(hartree)=     25.000   => boxcut(ratio)=   2.11597
 wfconv:     8 bands initialized randomly with npw=  3481, for ikpt=     1
 wfconv:     8 bands initialized randomly with npw=  6953, for ikpt=     2
 wfconv:     8 bands initialized randomly with npw=  6965, for ikpt=     3
 wfconv:     8 bands initialized randomly with npw=  6963, for ikpt=     4
 wfconv:     8 bands initialized randomly with npw=  6943, for ikpt=     5
 wfconv:     8 bands initialized randomly with npw=  6953, for ikpt=     6
 wfconv:     8 bands initialized randomly with npw=  6945, for ikpt=     7
 wfconv:     8 bands initialized randomly with npw=  6938, for ikpt=     8
 wfconv:     8 bands initialized randomly with npw=  6920, for ikpt=     9
 wfconv:     8 bands initialized randomly with npw=  6918, for ikpt=    10
 wfconv:     8 bands initialized randomly with npw=  6904, for ikpt=    11
 wfconv:     8 bands initialized randomly with npw=  6900, for ikpt=    12
 wfconv:     8 bands initialized randomly with npw=  6926, for ikpt=    13
 wfconv:     8 bands initialized randomly with npw=  6918, for ikpt=    14
 wfconv:     8 bands initialized randomly with npw=  6908, for ikpt=    15
 wfconv:     8 bands initialized randomly with npw=  6930, for ikpt=    16
 wfconv:     8 bands initialized randomly with npw=  6942, for ikpt=    17
 wfconv:     8 bands initialized randomly with npw=  3477, for ikpt=    18
 wfconv:     8 bands initialized randomly with npw=  6948, for ikpt=    19
 wfconv:     8 bands initialized randomly with npw=  6922, for ikpt=    20
 wfconv:     8 bands initialized randomly with npw=  6920, for ikpt=    21
 wfconv:     8 bands initialized randomly with npw=  6918, for ikpt=    22
 wfconv:     8 bands initialized randomly with npw=  6924, for ikpt=    23
 wfconv:     8 bands initialized randomly with npw=  6910, for ikpt=    24
 wfconv:     8 bands initialized randomly with npw=  6924, for ikpt=    25
 wfconv:     8 bands initialized randomly with npw=  6926, for ikpt=    26
 wfconv:     8 bands initialized randomly with npw=  6918, for ikpt=    27
 wfconv:     8 bands initialized randomly with npw=  6933, for ikpt=    28
 wfconv:     8 bands initialized randomly with npw=  6926, for ikpt=    29
 wfconv:     8 bands initialized randomly with npw=  6924, for ikpt=    30
 wfconv:     8 bands initialized randomly with npw=  6914, for ikpt=    31
 wfconv:     8 bands initialized randomly with npw=  6920, for ikpt=    32
 wfconv:     8 bands initialized randomly with npw=  6914, for ikpt=    33
 wfconv:     8 bands initialized randomly with npw=  6925, for ikpt=    34
 wfconv:     8 bands initialized randomly with npw=  6929, for ikpt=    35
 wfconv:     8 bands initialized randomly with npw=  6936, for ikpt=    36
 wfconv:     8 bands initialized randomly with npw=  6929, for ikpt=    37
 wfconv:     8 bands initialized randomly with npw=  6936, for ikpt=    38
 wfconv:     8 bands initialized randomly with npw=  6931, for ikpt=    39
 wfconv:     8 bands initialized randomly with npw=  6932, for ikpt=    40
 wfconv:     8 bands initialized randomly with npw=  6930, for ikpt=    41
 wfconv:     8 bands initialized randomly with npw=  6904, for ikpt=    42
 wfconv:     8 bands initialized randomly with npw=  6927, for ikpt=    43
 wfconv:     8 bands initialized randomly with npw=  6930, for ikpt=    44
 wfconv:     8 bands initialized randomly with npw=  6915, for ikpt=    45
 wfconv:     8 bands initialized randomly with npw=  6924, for ikpt=    46
 wfconv:     8 bands initialized randomly with npw=  6918, for ikpt=    47
 wfconv:     8 bands initialized randomly with npw=  6918, for ikpt=    48
 wfconv:     8 bands initialized randomly with npw=  6924, for ikpt=    49
 wfconv:     8 bands initialized randomly with npw=  6904, for ikpt=    50
 About to read data(r) from: mos2o_DS1_DEN
 
================================================================================
 
          - hdr_check: checking restart file header for consistency -
 
 
          current calculation                           restart file
          -------------------                           ------------
 
  calculation expects a density             |  input file contains a density
. ABINIT  code version 9.10.3               |  ABINIT  code version 9.10.3
. date 20250507 bantot      544 natom    3  |  date 20250507 bantot      280 natom    3
  nkpt      68 nsym  1 ngfft  30,  30, 180  |  nkpt      20 nsym  1 ngfft  30,  30, 180
  ntypat  2 ecut_eff  25.0000000            |  ntypat  2 ecut_eff  25.0000000
  usepaw  0                                 |  usepaw  0
  usewvl  0                                 |  usewvl  0
  rprimd:                                   |  rprimd:
     2.9763187  -5.1551351   0.0000000      |     2.9763187  -5.1551351   0.0000000
     2.9763187   5.1551351   0.0000000      |     2.9763187   5.1551351   0.0000000
     0.0000000   0.0000000  37.7945227      |     0.0000000   0.0000000  37.7945227
  symafm:                                   |  symafm:
    1                                       |    1
  symrel:                                   |  symrel:
    1  0  0  0  1  0  0  0  1               |    1  0  0  0  1  0  0  0  1
  typat:                                    |  typat:
    1  2  2                                 |    1  2  2
  so_psp  :                                 |  so_psp  :
    1  1                                    |    1  1
 
--- !COMMENT
src_file: m_hdr.F90
src_line: 4232
message: |
    input kptrlatt = 0 0 0 0 0 0 0 0 0  /= disk file kptrlatt = 6 0 0 0 6 0 0 0 1
...
 
 
--- !COMMENT
src_file: m_hdr.F90
src_line: 4235
message: |
    input kptopt = -3  /= disk file kptopt = 1
...
 
 
--- !WARNING
src_file: m_hdr.F90
src_line: 4256
message: |
    input ival=0 not equal disk file ival=13
...
 
  tnons:                                    |  tnons:
     0.0000000   0.0000000   0.0000000      |     0.0000000   0.0000000   0.0000000
   znucl:                                   |   znucl:
   42.00 16.00                              |       42.00 16.00
  pseudopotential atom type  1:             |  pseudopotential atom type  1:
  pspso   0 pspxc  11                       |  pspso   0 pspxc  11
  pspdat   170510 pspcod    8 zion  14.0    |  pspdat   170510 pspcod    8 zion  14.0
  pseudopotential atom type  2:             |  pseudopotential atom type  2:
  pspso   0 pspxc  11                       |  pspso   0 pspxc  11
  pspdat   220131 pspcod    8 zion   6.0    |  pspdat   220131 pspcod    8 zion   6.0
  xred:                                     |  xred:
     0.3333333   0.6666667   0.0000000      |     0.3333333   0.6666667   0.0000000
     0.6666667   0.3333333  -0.0919442      |     0.6666667   0.3333333  -0.0919442
     0.6666667   0.3333333   0.0919442      |     0.6666667   0.3333333   0.0919442
 hdr_check:  Density/Potential file is OK for restart of calculation
================================================================================
 read_rhor , wall:  0.00 [s] , cpu:  0.00 [s] <<< TIME
 
================================================================================
 
 getcut: wavevector=  0.0000  0.0000  0.0000  ngfft=  30  30 180
         ecut(hartree)=     25.000   => boxcut(ratio)=   2.11597
 Max number of non-self-consistent loops: 10
 k-point: [ 1 / 68 ], spin: 1
   Max resid = 3.52208E+00  (exclude nbdbuf bands). One NSCF iteration cpu-time:  0.05 [s] , wall-time:  0.05 [s]
   Max resid = 1.00069E-01  (exclude nbdbuf bands). One NSCF iteration cpu-time:  0.05 [s] , wall-time:  0.05 [s]
   Max resid = 6.73175E-04  (exclude nbdbuf bands). One NSCF iteration cpu-time:  0.05 [s] , wall-time:  0.05 [s]
   Printing residuals every mod(20) iterations...
 
--- !WARNING
src_file: m_vtowfk.F90
src_line: 1008
message: |
    Wavefunctions not converged for ikpt: 1, nnsclo: 10, max resid:   2.35390E-11
...
 
 
--- !WARNING
src_file: m_vtowfk.F90
src_line: 1008
message: |
    Wavefunctions not converged for ikpt: 2, nnsclo: 10, max resid:   2.31248E-11
...
 
 
--- !WARNING
src_file: m_vtowfk.F90
src_line: 1008
message: |
    Wavefunctions not converged for ikpt: 3, nnsclo: 10, max resid:   1.87049E-11
...
 
 
--- !WARNING
src_file: m_vtowfk.F90
src_line: 1008
message: |
    Wavefunctions not converged for ikpt: 4, nnsclo: 10, max resid:   2.10283E-11
...
 
 
--- !WARNING
src_file: m_vtowfk.F90
src_line: 1008
message: |
    Wavefunctions not converged for ikpt: 5, nnsclo: 10, max resid:   3.87334E-11
...
 
 
--- !WARNING
src_file: m_vtowfk.F90
src_line: 1008
message: |
    Wavefunctions not converged for ikpt: 6, nnsclo: 10, max resid:   1.34073E-11
...
 
 
--- !WARNING
src_file: m_vtowfk.F90
src_line: 1008
message: |
    Wavefunctions not converged for ikpt: 7, nnsclo: 10, max resid:   6.75118E-12
...
 
 
--- !WARNING
src_file: m_vtowfk.F90
src_line: 1008
message: |
    Wavefunctions not converged for ikpt: 8, nnsclo: 10, max resid:   6.08074E-12
...
 
 
--- !WARNING
src_file: m_vtowfk.F90
src_line: 1008
message: |
    Wavefunctions not converged for ikpt: 9, nnsclo: 10, max resid:   2.12763E-11
...
 
 
--- !WARNING
src_file: m_vtowfk.F90
src_line: 1008
message: |
    Wavefunctions not converged for ikpt: 10, nnsclo: 10, max resid:   4.26737E-12
...
 
 
--- !WARNING
src_file: m_vtowfk.F90
src_line: 1008
message: |
    Wavefunctions not converged for ikpt: 11, nnsclo: 10, max resid:   7.38878E-12
...
 
 
--- !WARNING
src_file: m_vtowfk.F90
src_line: 1008
message: |
    Wavefunctions not converged for ikpt: 12, nnsclo: 10, max resid:   4.61947E-12
...
 
 
--- !WARNING
src_file: m_vtowfk.F90
src_line: 1008
message: |
    Wavefunctions not converged for ikpt: 13, nnsclo: 10, max resid:   6.88816E-12
...
 
 
--- !WARNING
src_file: m_vtowfk.F90
src_line: 1008
message: |
    Wavefunctions not converged for ikpt: 14, nnsclo: 10, max resid:   2.57168E-12
...
 
 
--- !WARNING
src_file: m_vtowfk.F90
src_line: 1008
message: |
    Wavefunctions not converged for ikpt: 15, nnsclo: 10, max resid:   1.39170E-12
...
 
 
--- !WARNING
src_file: m_vtowfk.F90
src_line: 1008
message: |
    Wavefunctions not converged for ikpt: 16, nnsclo: 10, max resid:   2.48365E-12
...
 
 
--- !WARNING
src_file: m_vtowfk.F90
src_line: 1008
message: |
    Wavefunctions not converged for ikpt: 17, nnsclo: 10, max resid:   2.57362E-12
...
 
 
--- !WARNING
src_file: m_vtowfk.F90
src_line: 1008
message: |
    Wavefunctions not converged for ikpt: 18, nnsclo: 10, max resid:   1.27327E-12
...
 
 
--- !WARNING
src_file: m_vtowfk.F90
src_line: 1008
message: |
    Wavefunctions not converged for ikpt: 19, nnsclo: 10, max resid:   1.04273E-12
...
 
 
--- !WARNING
src_file: m_vtowfk.F90
src_line: 1008
message: |
    Wavefunctions not converged for ikpt: 20, nnsclo: 10, max resid:   1.84293E-12
...
 
 
--- !WARNING
src_file: m_vtowfk.F90
src_line: 1008
message: |
    Wavefunctions not converged for ikpt: 21, nnsclo: 10, max resid:   1.36573E-12
...
 
 
--- !WARNING
src_file: m_vtowfk.F90
src_line: 1008
message: |
    Wavefunctions not converged for ikpt: 22, nnsclo: 10, max resid:   4.50554E-12
...
 
 
--- !WARNING
src_file: m_vtowfk.F90
src_line: 1008
message: |
    Wavefunctions not converged for ikpt: 23, nnsclo: 10, max resid:   2.36221E-12
...
 
 
--- !WARNING
src_file: m_vtowfk.F90
src_line: 1008
message: |
    Wavefunctions not converged for ikpt: 24, nnsclo: 10, max resid:   1.85382E-12
...
 
 
--- !WARNING
src_file: m_vtowfk.F90
src_line: 1008
message: |
    Wavefunctions not converged for ikpt: 25, nnsclo: 10, max resid:   1.42490E-12
...
 
 
--- !WARNING
src_file: m_vtowfk.F90
src_line: 1008
message: |
    Wavefunctions not converged for ikpt: 28, nnsclo: 10, max resid:   1.31911E-12
...
 
 
--- !WARNING
src_file: m_vtowfk.F90
src_line: 1008
message: |
    Wavefunctions not converged for ikpt: 31, nnsclo: 10, max resid:   1.79755E-12
...
 
 
--- !WARNING
src_file: m_vtowfk.F90
src_line: 1008
message: |
    Wavefunctions not converged for ikpt: 33, nnsclo: 10, max resid:   1.12952E-12
...
 
 
--- !WARNING
src_file: m_vtowfk.F90
src_line: 1008
message: |
    Wavefunctions not converged for ikpt: 34, nnsclo: 10, max resid:   1.79378E-12
...
 
 
--- !WARNING
src_file: m_vtowfk.F90
src_line: 1008
message: |
    Wavefunctions not converged for ikpt: 35, nnsclo: 10, max resid:   2.57818E-12
...
 
 
--- !WARNING
src_file: m_vtowfk.F90
src_line: 1008
message: |
    Wavefunctions not converged for ikpt: 36, nnsclo: 10, max resid:   1.58878E-12
...
 
 
--- !WARNING
src_file: m_vtowfk.F90
src_line: 1008
message: |
    Wavefunctions not converged for ikpt: 37, nnsclo: 10, max resid:   1.93744E-12
...
 
 
--- !WARNING
src_file: m_vtowfk.F90
src_line: 1008
message: |
    Wavefunctions not converged for ikpt: 38, nnsclo: 10, max resid:   1.82871E-12
...
 
 
--- !WARNING
src_file: m_vtowfk.F90
src_line: 1008
message: |
    Wavefunctions not converged for ikpt: 39, nnsclo: 10, max resid:   1.97093E-12
...
 
 
--- !WARNING
src_file: m_vtowfk.F90
src_line: 1008
message: |
    Wavefunctions not converged for ikpt: 40, nnsclo: 10, max resid:   1.41961E-12
...
 
 
--- !WARNING
src_file: m_vtowfk.F90
src_line: 1008
message: |
    Wavefunctions not converged for ikpt: 41, nnsclo: 10, max resid:   1.43117E-12
...
 
 
--- !WARNING
src_file: m_vtowfk.F90
src_line: 1008
message: |
    Wavefunctions not converged for ikpt: 42, nnsclo: 10, max resid:   1.25763E-12
...
 
 
--- !WARNING
src_file: m_vtowfk.F90
src_line: 1008
message: |
    Wavefunctions not converged for ikpt: 43, nnsclo: 10, max resid:   2.56174E-12
...
 
 
--- !WARNING
src_file: m_vtowfk.F90
src_line: 1008
message: |
    Wavefunctions not converged for ikpt: 44, nnsclo: 10, max resid:   1.95690E-12
...
 
 
--- !WARNING
src_file: m_vtowfk.F90
src_line: 1008
message: |
    Wavefunctions not converged for ikpt: 46, nnsclo: 10, max resid:   1.78626E-12
...
 
 
--- !WARNING
src_file: m_vtowfk.F90
src_line: 1008
message: |
    Wavefunctions not converged for ikpt: 48, nnsclo: 10, max resid:   2.32068E-12
...
 
 
--- !WARNING
src_file: m_vtowfk.F90
src_line: 1008
message: |
    Wavefunctions not converged for ikpt: 51, nnsclo: 10, max resid:   1.56064E-12
...
 
 
--- !WARNING
src_file: m_vtowfk.F90
src_line: 1008
message: |
    Wavefunctions not converged for ikpt: 52, nnsclo: 10, max resid:   1.45246E-12
...
 
 
--- !WARNING
src_file: m_vtowfk.F90
src_line: 1008
message: |
    Wavefunctions not converged for ikpt: 54, nnsclo: 10, max resid:   2.28383E-12
...
 
 
--- !WARNING
src_file: m_vtowfk.F90
src_line: 1008
message: |
    Wavefunctions not converged for ikpt: 55, nnsclo: 10, max resid:   4.66948E-12
...
 
 
--- !WARNING
src_file: m_vtowfk.F90
src_line: 1008
message: |
    Wavefunctions not converged for ikpt: 56, nnsclo: 10, max resid:   4.23076E-12
...
 
 
--- !WARNING
src_file: m_vtowfk.F90
src_line: 1008
message: |
    Wavefunctions not converged for ikpt: 57, nnsclo: 10, max resid:   4.82317E-12
...
 
 
--- !WARNING
src_file: m_vtowfk.F90
src_line: 1008
message: |
    Wavefunctions not converged for ikpt: 58, nnsclo: 10, max resid:   3.43555E-12
...
 
 
--- !WARNING
src_file: m_vtowfk.F90
src_line: 1008
message: |
    Wavefunctions not converged for ikpt: 59, nnsclo: 10, max resid:   1.41265E-11
...
 
 
--- !WARNING
src_file: m_vtowfk.F90
src_line: 1008
message: |
    Wavefunctions not converged for ikpt: 60, nnsclo: 10, max resid:   1.09545E-11
...
 
 
--- !WARNING
src_file: m_vtowfk.F90
src_line: 1008
message: |
    Wavefunctions not converged for ikpt: 61, nnsclo: 10, max resid:   8.32194E-12
...
 
 
--- !WARNING
src_file: m_vtowfk.F90
src_line: 1008
message: |
    Wavefunctions not converged for ikpt: 62, nnsclo: 10, max resid:   1.32421E-11
...
 
 
--- !WARNING
src_file: m_vtowfk.F90
src_line: 1008
message: |
    Wavefunctions not converged for ikpt: 63, nnsclo: 10, max resid:   1.21231E-11
...
 
 
--- !WARNING
src_file: m_vtowfk.F90
src_line: 1008
message: |
    Wavefunctions not converged for ikpt: 64, nnsclo: 10, max resid:   5.72177E-11
...
 
 
--- !WARNING
src_file: m_vtowfk.F90
src_line: 1008
message: |
    Wavefunctions not converged for ikpt: 65, nnsclo: 10, max resid:   7.23254E-11
...
 
 
--- !WARNING
src_file: m_vtowfk.F90
src_line: 1008
message: |
    Wavefunctions not converged for ikpt: 66, nnsclo: 10, max resid:   5.07298E-11
...
 
 
--- !WARNING
src_file: m_vtowfk.F90
src_line: 1008
message: |
    Wavefunctions not converged for ikpt: 67, nnsclo: 10, max resid:   2.51697E-11
...
 
 
--- !WARNING
src_file: m_vtowfk.F90
src_line: 1008
message: |
    Wavefunctions not converged for ikpt: 68, nnsclo: 10, max resid:   2.83859E-11
...
 
 
 -------------------------------------------------------------------------------------------------
 Ekinetic   = :     0.000000E+00 Ha ,    0.000000E+00 eV
 Evext_l    = :     0.000000E+00 Ha ,    0.000000E+00 eV
 Evext_nl   = :     0.000000E+00 Ha ,    0.000000E+00 eV
 Epsp_core  = :     7.631172E-01 Ha ,    2.076547E+01 eV
 Ehartree   = :     0.000000E+00 Ha ,    0.000000E+00 eV
 Exc_ks     = :    -1.645055E+01 Ha ,   -4.476423E+02 eV
 Enn        = :     1.895732E+02 Ha ,    5.158549E+03 eV
 -------------------------------------------------------------------------------------------------
 Etot       = :     1.738858E+02 Ha ,    4.731672E+03 eV
 -------------------------------------------------------------------------------------------------

--- !NscfConvergenceWarning
message: |
    
     scprqt:  WARNING -
      nstep=   10 was not enough non-SCF iterations to converge;
...
 
 scprqt:  WARNING -
  nstep=   10 was not enough non-SCF iterations to converge;
  maximum residual each band. tolwfr=   1.000E-12
  iband, isppol, individual band residuals (max over all k-points):
     1     1  9.725E-13
     2     1  9.865E-13
     3     1  9.703E-13
     4     1  9.790E-13
     5     1  7.233E-11
     6     1  1.212E-11
     7     1  3.430E-05
     8     1  1.865E-04
  maximum residual=  7.233E-11 exceeds tolwfr=  1.000E-12
 
 
 fftdatar_write: About to write data to: mos2o_DS2_DEN with iomode: IO_MODE_FORTRAN
 IO operation , wall:  0.16 [s] , cpu:  0.01 [s] <<< TIME
- Creating HDf5 file with MPI-IO support: mos2o_DS2_GSR.nc
 Integrated electronic density in atomic spheres:
 ------------------------------------------------
 Atom  Sphere_radius  Integrated_density
    1        2.00000         10.42085540
    2        2.00000          3.81736720
    3        2.00000          3.81685325
================================================================================
 
 ----iterations are completed or convergence reached----
 
 
 === Gap info ===
Not enough states to calculate the band gap.
 Mean square residual over all n,k,spin=   21.786E-13; max=  72.325E-12
   0.0000  0.0000  0.0000    1  9.26766E-09 kpt; spin; max resid(k); each band:
  6.99E-13 5.27E-13 3.08E-13 3.46E-13 2.35E-11 1.21E-11 4.57E-10 9.27E-09
   0.0294  0.0000  0.0000    1  2.29211E-07 kpt; spin; max resid(k); each band:
  3.71E-13 9.22E-13 2.87E-13 5.78E-13 2.31E-11 8.90E-12 7.90E-11 2.29E-07
   0.0588  0.0000  0.0000    1  9.19059E-07 kpt; spin; max resid(k); each band:
  9.24E-13 5.17E-13 4.01E-13 3.63E-13 1.87E-11 5.35E-12 3.52E-10 9.19E-07
   0.0882  0.0000  0.0000    1  3.87209E-07 kpt; spin; max resid(k); each band:
  5.61E-13 3.46E-13 3.61E-13 4.78E-13 2.10E-11 4.92E-12 1.49E-11 3.87E-07
   0.1176  0.0000  0.0000    1  1.83553E-06 kpt; spin; max resid(k); each band:
  8.77E-13 2.46E-13 4.32E-13 4.21E-13 3.87E-11 9.14E-12 5.64E-10 1.84E-06
   0.1471  0.0000  0.0000    1  1.95885E-06 kpt; spin; max resid(k); each band:
  3.59E-13 9.51E-13 8.32E-13 4.86E-13 1.34E-11 2.35E-12 4.35E-10 1.96E-06
   0.1765  0.0000  0.0000    1  3.91937E-05 kpt; spin; max resid(k); each band:
  3.68E-13 4.49E-13 6.59E-13 3.93E-13 6.75E-12 3.15E-12 5.46E-09 3.92E-05
   0.2059  0.0000  0.0000    1  1.86527E-04 kpt; spin; max resid(k); each band:
  3.11E-13 9.87E-13 3.35E-13 4.07E-13 5.35E-12 6.08E-12 1.10E-08 1.87E-04
   0.2353  0.0000  0.0000    1  8.51251E-05 kpt; spin; max resid(k); each band:
  3.52E-13 4.38E-13 6.80E-13 6.42E-13 2.13E-11 4.23E-12 7.44E-09 8.51E-05
   0.2647  0.0000  0.0000    1  1.27655E-05 kpt; spin; max resid(k); each band:
  4.20E-13 8.90E-13 4.40E-13 6.26E-13 2.61E-12 4.27E-12 4.32E-07 1.28E-05
   0.2941  0.0000  0.0000    1  3.42950E-05 kpt; spin; max resid(k); each band:
  5.18E-13 4.81E-13 8.43E-13 3.09E-13 7.39E-12 4.33E-12 3.43E-05 1.62E-05
   0.3235  0.0000  0.0000    1  2.82927E-06 kpt; spin; max resid(k); each band:
  3.12E-13 2.97E-13 4.55E-13 7.97E-13 4.62E-12 2.06E-12 2.83E-06 1.19E-06
   0.3529  0.0000  0.0000    1  6.21818E-06 kpt; spin; max resid(k); each band:
  4.36E-13 3.86E-13 4.71E-13 3.90E-13 6.89E-12 1.24E-12 1.06E-06 6.22E-06
   0.3824  0.0000  0.0000    1  1.77022E-07 kpt; spin; max resid(k); each band:
  3.53E-13 9.20E-13 8.10E-13 2.87E-13 1.54E-12 2.57E-12 1.26E-07 1.77E-07
   0.4118  0.0000  0.0000    1  3.37309E-06 kpt; spin; max resid(k); each band:
  3.92E-13 5.41E-13 6.99E-13 7.82E-13 1.39E-12 9.87E-13 2.37E-08 3.37E-06
   0.4412  0.0000  0.0000    1  8.69211E-07 kpt; spin; max resid(k); each band:
  5.68E-13 3.04E-13 9.50E-13 8.61E-13 2.48E-12 1.11E-12 2.23E-08 8.69E-07
   0.4706  0.0000  0.0000    1  3.72362E-08 kpt; spin; max resid(k); each band:
  4.28E-13 3.20E-13 8.29E-13 9.25E-13 2.57E-12 2.34E-12 3.72E-08 2.43E-08
   0.5000  0.0000  0.0000    1  7.24215E-07 kpt; spin; max resid(k); each band:
  9.34E-13 4.54E-13 7.33E-13 5.82E-13 1.27E-12 6.76E-13 3.49E-08 7.24E-07
   0.4833  0.0333  0.0000    1  5.75418E-08 kpt; spin; max resid(k); each band:
  8.84E-13 3.62E-13 6.03E-13 3.08E-13 1.04E-12 5.15E-13 1.48E-08 5.75E-08
   0.4667  0.0667  0.0000    1  3.12474E-07 kpt; spin; max resid(k); each band:
  4.94E-13 9.06E-13 2.92E-13 5.02E-13 1.84E-12 3.20E-13 3.19E-08 3.12E-07
   0.4500  0.1000  0.0000    1  6.05817E-08 kpt; spin; max resid(k); each band:
  5.00E-13 3.15E-13 5.11E-13 2.81E-13 1.14E-12 1.37E-12 6.06E-08 5.90E-08
   0.4333  0.1333  0.0000    1  1.20468E-07 kpt; spin; max resid(k); each band:
  3.45E-13 3.31E-13 5.72E-13 4.09E-13 3.01E-12 4.51E-12 2.66E-08 1.20E-07
   0.4167  0.1667  0.0000    1  1.36204E-07 kpt; spin; max resid(k); each band:
  3.80E-13 7.72E-13 6.70E-13 4.56E-13 2.36E-12 9.11E-13 6.47E-08 1.36E-07
   0.4000  0.2000  0.0000    1  6.87531E-08 kpt; spin; max resid(k); each band:
  6.07E-13 2.26E-13 5.93E-13 2.64E-13 1.11E-12 1.85E-12 6.70E-08 6.88E-08
   0.3833  0.2333  0.0000    1  1.67910E-05 kpt; spin; max resid(k); each band:
  8.66E-13 5.35E-13 6.99E-13 6.80E-13 1.42E-12 1.26E-12 3.13E-07 1.68E-05
   0.3667  0.2667  0.0000    1  1.59317E-07 kpt; spin; max resid(k); each band:
  5.40E-13 8.11E-13 8.82E-13 5.09E-13 6.81E-13 6.10E-13 1.59E-07 8.53E-08
   0.3500  0.3000  0.0000    1  1.21459E-07 kpt; spin; max resid(k); each band:
  6.74E-13 7.01E-13 6.62E-13 5.92E-13 4.97E-13 8.47E-13 1.33E-08 1.21E-07
   0.3333  0.3333  0.0000    1  3.65962E-07 kpt; spin; max resid(k); each band:
  4.99E-13 8.08E-13 6.65E-13 3.95E-13 1.23E-12 1.32E-12 1.17E-07 3.66E-07
   0.3500  0.3500  0.0250    1  7.47297E-07 kpt; spin; max resid(k); each band:
  5.60E-13 6.77E-13 5.01E-13 3.83E-13 3.34E-13 8.93E-13 2.45E-07 7.47E-07
   0.3667  0.3667  0.0500    1  4.65873E-08 kpt; spin; max resid(k); each band:
  4.03E-13 7.47E-13 2.71E-13 4.20E-13 1.92E-13 7.03E-13 2.83E-08 4.66E-08
   0.3833  0.3833  0.0750    1  9.09381E-09 kpt; spin; max resid(k); each band:
  9.26E-13 1.76E-13 2.87E-13 5.80E-13 1.80E-12 8.12E-13 9.09E-09 7.27E-09
   0.4000  0.4000  0.1000    1  6.03853E-08 kpt; spin; max resid(k); each band:
  8.27E-13 7.80E-13 2.95E-13 2.81E-13 8.37E-13 5.66E-13 2.08E-08 6.04E-08
   0.4167  0.4167  0.1250    1  4.06825E-08 kpt; spin; max resid(k); each band:
  5.28E-13 6.87E-13 8.35E-13 6.63E-13 1.13E-12 9.87E-13 3.42E-09 4.07E-08
   0.4333  0.4333  0.1500    1  5.01829E-08 kpt; spin; max resid(k); each band:
  3.05E-13 3.22E-13 4.82E-13 5.15E-13 1.79E-12 7.37E-13 8.57E-09 5.02E-08
   0.4500  0.4500  0.1750    1  1.17779E-07 kpt; spin; max resid(k); each band:
  6.00E-13 5.22E-13 4.65E-13 6.25E-13 8.04E-13 2.58E-12 8.56E-09 1.18E-07
   0.4667  0.4667  0.2000    1  1.83504E-07 kpt; spin; max resid(k); each band:
  4.19E-13 6.75E-13 3.77E-13 5.58E-13 1.59E-12 1.37E-12 3.41E-09 1.84E-07
   0.4833  0.4833  0.2250    1  1.02998E-07 kpt; spin; max resid(k); each band:
  4.42E-13 8.95E-13 6.35E-13 6.97E-13 1.94E-12 5.85E-13 8.68E-09 1.03E-07
   0.5000  0.5000  0.2500    1  1.84336E-06 kpt; spin; max resid(k); each band:
  4.46E-13 4.94E-13 3.92E-13 7.05E-13 1.61E-12 1.83E-12 5.46E-08 1.84E-06
   0.5167  0.5167  0.2750    1  6.68742E-08 kpt; spin; max resid(k); each band:
  2.97E-13 2.36E-13 5.18E-13 7.51E-13 1.79E-12 1.97E-12 1.31E-08 6.69E-08
   0.5333  0.5333  0.3000    1  6.55137E-07 kpt; spin; max resid(k); each band:
  3.20E-13 9.47E-13 8.53E-13 3.80E-13 1.42E-12 1.03E-12 3.10E-08 6.55E-07
   0.5500  0.5500  0.3250    1  3.79715E-07 kpt; spin; max resid(k); each band:
  3.95E-13 2.99E-13 3.87E-13 4.45E-13 1.43E-12 9.00E-13 9.05E-09 3.80E-07
   0.5667  0.5667  0.3500    1  1.73349E-07 kpt; spin; max resid(k); each band:
  3.97E-13 5.33E-13 9.04E-13 4.30E-13 9.83E-13 1.26E-12 4.18E-08 1.73E-07
   0.5833  0.5833  0.3750    1  1.17023E-07 kpt; spin; max resid(k); each band:
  3.94E-13 6.55E-13 7.12E-13 5.18E-13 2.56E-12 1.90E-12 3.58E-09 1.17E-07
   0.6000  0.6000  0.4000    1  3.60197E-08 kpt; spin; max resid(k); each band:
  4.40E-13 9.85E-13 3.36E-13 3.55E-13 1.96E-12 6.74E-13 2.63E-08 3.60E-08
   0.6167  0.6167  0.4250    1  6.47357E-08 kpt; spin; max resid(k); each band:
  4.78E-13 9.24E-13 5.88E-13 2.88E-13 6.08E-13 4.34E-13 3.23E-08 6.47E-08
   0.6333  0.6333  0.4500    1  3.85275E-08 kpt; spin; max resid(k); each band:
  4.31E-13 8.06E-13 5.32E-13 8.66E-13 1.79E-12 1.22E-12 3.85E-08 3.19E-08
   0.6500  0.6500  0.4750    1  7.68239E-07 kpt; spin; max resid(k); each band:
  4.04E-13 8.60E-13 3.57E-13 5.21E-13 6.07E-13 7.93E-13 7.73E-08 7.68E-07
   0.6667  0.6667  0.5000    1  4.23890E-07 kpt; spin; max resid(k); each band:
  3.85E-13 8.19E-13 2.48E-13 6.60E-13 2.32E-12 1.52E-12 2.51E-07 4.24E-07
   0.6833  0.6833  0.5250    1  3.72213E-07 kpt; spin; max resid(k); each band:
  5.49E-13 3.83E-13 3.94E-13 2.54E-13 5.85E-13 6.51E-13 2.31E-07 3.72E-07
   0.7000  0.7000  0.5500    1  2.33724E-07 kpt; spin; max resid(k); each band:
  3.37E-13 4.30E-13 2.52E-13 7.25E-13 9.11E-13 6.30E-13 8.81E-08 2.34E-07
 outwf : prtvol=0 or 1, do not print more k-points.
 
 
   outwf: writing wavefunctions to: mos2o_DS2_WFK with iomode: IO_MODE_FORTRAN_MASTER
 WFK output , wall:  0.12 [s] , cpu:  0.08 [s] <<< TIME
 prteigrs : about to open file mos2o_DS2_EIG
 Eigenvalues (   eV  ) for nkpt=  68  k points:
 kpt#   1, nband=  8, wtk=  1.00000, kpt=  0.0000  0.0000  0.0000 (reduced coord)
 -61.86093  -35.95493  -35.64827  -35.64661  -14.79744  -14.18355   -6.32258   -3.73827
 kpt#   2, nband=  8, wtk=  1.00000, kpt=  0.0294  0.0000  0.0000 (reduced coord)
 -61.86032  -35.95356  -35.65070  -35.64791  -14.78507  -14.17508   -6.30559   -3.74647
 kpt#   3, nband=  8, wtk=  1.00000, kpt=  0.0588  0.0000  0.0000 (reduced coord)
 -61.85976  -35.95325  -35.66002  -35.65031  -14.74818  -14.14994   -6.25546   -3.77114
 kpt#   4, nband=  8, wtk=  1.00000, kpt=  0.0882  0.0000  0.0000 (reduced coord)
 -61.85803  -35.95050  -35.67477  -35.65405  -14.68730  -14.10838   -6.17367   -3.81205
 kpt#   5, nband=  8, wtk=  1.00000, kpt=  0.1176  0.0000  0.0000 (reduced coord)
 -61.85506  -35.94644  -35.69424  -35.65765  -14.60331  -14.05106   -6.06322   -3.86925
 kpt#   6, nband=  8, wtk=  1.00000, kpt=  0.1471  0.0000  0.0000 (reduced coord)
 -61.85267  -35.94286  -35.71920  -35.66393  -14.49762  -13.97901   -5.92886   -3.94414
 kpt#   7, nband=  8, wtk=  1.00000, kpt=  0.1765  0.0000  0.0000 (reduced coord)
 -61.84921  -35.93766  -35.74718  -35.67033  -14.37196  -13.89340   -5.77698   -4.03634
 kpt#   8, nband=  8, wtk=  1.00000, kpt=  0.2059  0.0000  0.0000 (reduced coord)
 -61.84546  -35.93272  -35.77786  -35.67663  -14.22857  -13.79599   -5.61697   -4.12983
 kpt#   9, nband=  8, wtk=  1.00000, kpt=  0.2353  0.0000  0.0000 (reduced coord)
 -61.84116  -35.92631  -35.80877  -35.68455  -14.07031  -13.68879   -5.46298   -4.27250
 kpt#  10, nband=  8, wtk=  1.00000, kpt=  0.2647  0.0000  0.0000 (reduced coord)
 -61.83740  -35.92028  -35.84169  -35.69255  -13.90082  -13.57453   -5.34154   -4.48829
 kpt#  11, nband=  8, wtk=  1.00000, kpt=  0.2941  0.0000  0.0000 (reduced coord)
 -61.83322  -35.91403  -35.87356  -35.69945  -13.72444  -13.45644   -5.30928   -4.69097
 kpt#  12, nband=  8, wtk=  1.00000, kpt=  0.3235  0.0000  0.0000 (reduced coord)
 -61.82952  -35.90838  -35.90440  -35.70598  -13.54657  -13.33837   -5.44855   -4.96832
 kpt#  13, nband=  8, wtk=  1.00000, kpt=  0.3529  0.0000  0.0000 (reduced coord)
 -61.82724  -35.93385  -35.90475  -35.71272  -13.37385  -13.22495   -5.68849   -5.20895
 kpt#  14, nband=  8, wtk=  1.00000, kpt=  0.3824  0.0000  0.0000 (reduced coord)
 -61.82417  -35.95817  -35.89973  -35.71782  -13.21394  -13.12118   -5.93900   -5.43206
 kpt#  15, nband=  8, wtk=  1.00000, kpt=  0.4118  0.0000  0.0000 (reduced coord)
 -61.82154  -35.97740  -35.89574  -35.72197  -13.07581  -13.03242   -6.15984   -5.62105
 kpt#  16, nband=  8, wtk=  1.00000, kpt=  0.4412  0.0000  0.0000 (reduced coord)
 -61.82062  -35.99248  -35.89341  -35.72717  -12.97094  -12.96164   -6.33098   -5.76502
 kpt#  17, nband=  8, wtk=  1.00000, kpt=  0.4706  0.0000  0.0000 (reduced coord)
 -61.81997  -36.00188  -35.89226  -35.72968  -12.92281  -12.89823   -6.43921   -5.85495
 kpt#  18, nband=  8, wtk=  1.00000, kpt=  0.5000  0.0000  0.0000 (reduced coord)
 -61.82006  -36.00556  -35.89240  -35.73053  -12.90792  -12.87485   -6.47627   -5.88554
 kpt#  19, nband=  8, wtk=  1.00000, kpt=  0.4833  0.0333  0.0000 (reduced coord)
 -61.81974  -36.00455  -35.89160  -35.73269  -12.90340  -12.86917   -6.46131   -5.87967
 kpt#  20, nband=  8, wtk=  1.00000, kpt=  0.4667  0.0667  0.0000 (reduced coord)
 -61.81854  -35.99979  -35.88997  -35.73918  -12.89013  -12.85242   -6.41663   -5.86258
 kpt#  21, nband=  8, wtk=  1.00000, kpt=  0.4500  0.1000  0.0000 (reduced coord)
 -61.81801  -35.99362  -35.88886  -35.75144  -12.86899  -12.82562   -6.34327   -5.83602
 kpt#  22, nband=  8, wtk=  1.00000, kpt=  0.4333  0.1333  0.0000 (reduced coord)
 -61.81734  -35.98418  -35.88796  -35.76822  -12.84143  -12.79042   -6.24261   -5.80298
 kpt#  23, nband=  8, wtk=  1.00000, kpt=  0.4167  0.1667  0.0000 (reduced coord)
 -61.81684  -35.97411  -35.88715  -35.78739  -12.80944  -12.74928   -6.11692   -5.76787
 kpt#  24, nband=  8, wtk=  1.00000, kpt=  0.4000  0.2000  0.0000 (reduced coord)
 -61.81558  -35.96204  -35.88478  -35.80782  -12.77562  -12.70532   -5.96909   -5.73636
 kpt#  25, nband=  8, wtk=  1.00000, kpt=  0.3833  0.2333  0.0000 (reduced coord)
 -61.81541  -35.94791  -35.88463  -35.83126  -12.74305  -12.66247   -5.80368   -5.71411
 kpt#  26, nband=  8, wtk=  1.00000, kpt=  0.3667  0.2667  0.0000 (reduced coord)
 -61.81494  -35.93243  -35.88403  -35.85376  -12.71522  -12.62535   -5.70617   -5.62939
 kpt#  27, nband=  8, wtk=  1.00000, kpt=  0.3500  0.3000  0.0000 (reduced coord)
 -61.81425  -35.91682  -35.88299  -35.87355  -12.69588  -12.59912   -5.70828   -5.47020
 kpt#  28, nband=  8, wtk=  1.00000, kpt=  0.3333  0.3333  0.0000 (reduced coord)
 -61.81466  -35.90610  -35.88743  -35.88326  -12.68867  -12.58922   -5.71189   -5.39499
 kpt#  29, nband=  8, wtk=  1.00000, kpt=  0.3500  0.3500  0.0250 (reduced coord)
 -61.81454  -35.91627  -35.88341  -35.87471  -12.69586  -12.59913   -5.70831   -5.47014
 kpt#  30, nband=  8, wtk=  1.00000, kpt=  0.3667  0.3667  0.0500 (reduced coord)
 -61.81487  -35.93136  -35.88402  -35.85459  -12.71519  -12.62536   -5.70623   -5.62932
 kpt#  31, nband=  8, wtk=  1.00000, kpt=  0.3833  0.3833  0.0750 (reduced coord)
 -61.81506  -35.94663  -35.88413  -35.83179  -12.74300  -12.66248   -5.80362   -5.71463
 kpt#  32, nband=  8, wtk=  1.00000, kpt=  0.4000  0.4000  0.1000 (reduced coord)
 -61.81595  -35.96162  -35.88507  -35.80920  -12.77557  -12.70537   -5.96904   -5.73645
 kpt#  33, nband=  8, wtk=  1.00000, kpt=  0.4167  0.4167  0.1250 (reduced coord)
 -61.81647  -35.97353  -35.88623  -35.78760  -12.80938  -12.74932   -6.11687   -5.76790
 kpt#  34, nband=  8, wtk=  1.00000, kpt=  0.4333  0.4333  0.1500 (reduced coord)
 -61.81758  -35.98375  -35.88857  -35.76890  -12.84136  -12.79047   -6.24256   -5.80307
 kpt#  35, nband=  8, wtk=  1.00000, kpt=  0.4500  0.4500  0.1750 (reduced coord)
 -61.81833  -35.99314  -35.88944  -35.75245  -12.86892  -12.82567   -6.34323   -5.83612
 kpt#  36, nband=  8, wtk=  1.00000, kpt=  0.4667  0.4667  0.2000 (reduced coord)
 -61.81905  -35.99961  -35.89060  -35.74049  -12.89006  -12.85248   -6.41661   -5.86267
 kpt#  37, nband=  8, wtk=  1.00000, kpt=  0.4833  0.4833  0.2250 (reduced coord)
 -61.81906  -36.00297  -35.89034  -35.73314  -12.90331  -12.86920   -6.46122   -5.87969
 kpt#  38, nband=  8, wtk=  1.00000, kpt=  0.5000  0.5000  0.2500 (reduced coord)
 -61.81940  -36.00405  -35.89096  -35.73119  -12.90783  -12.87488   -6.47618   -5.88548
 kpt#  39, nband=  8, wtk=  1.00000, kpt=  0.5167  0.5167  0.2750 (reduced coord)
 -61.81913  -36.00303  -35.89051  -35.73317  -12.90331  -12.86920   -6.46122   -5.87969
 kpt#  40, nband=  8, wtk=  1.00000, kpt=  0.5333  0.5333  0.3000 (reduced coord)
 -61.81889  -35.99970  -35.88998  -35.74049  -12.89005  -12.85248   -6.41661   -5.86264
 kpt#  41, nband=  8, wtk=  1.00000, kpt=  0.5500  0.5500  0.3250 (reduced coord)
 -61.81836  -35.99315  -35.88918  -35.75280  -12.86892  -12.82568   -6.34323   -5.83610
 kpt#  42, nband=  8, wtk=  1.00000, kpt=  0.5667  0.5667  0.3500 (reduced coord)
 -61.81680  -35.98330  -35.88758  -35.76763  -12.84136  -12.79046   -6.24253   -5.80303
 kpt#  43, nband=  8, wtk=  1.00000, kpt=  0.5833  0.5833  0.3750 (reduced coord)
 -61.81692  -35.97366  -35.88696  -35.78835  -12.80939  -12.74932   -6.11687   -5.76790
 kpt#  44, nband=  8, wtk=  1.00000, kpt=  0.6000  0.6000  0.4000 (reduced coord)
 -61.81633  -35.96112  -35.88594  -35.81017  -12.77557  -12.70535   -5.96902   -5.73645
 kpt#  45, nband=  8, wtk=  1.00000, kpt=  0.6167  0.6167  0.4250 (reduced coord)
 -61.81512  -35.94685  -35.88425  -35.83161  -12.74300  -12.66249   -5.80363   -5.71462
 kpt#  46, nband=  8, wtk=  1.00000, kpt=  0.6333  0.6333  0.4500 (reduced coord)
 -61.81488  -35.93204  -35.88382  -35.85414  -12.71520  -12.62536   -5.70624   -5.62935
 kpt#  47, nband=  8, wtk=  1.00000, kpt=  0.6500  0.6500  0.4750 (reduced coord)
 -61.81425  -35.91623  -35.88261  -35.87453  -12.69586  -12.59913   -5.70831   -5.47013
 kpt#  48, nband=  8, wtk=  1.00000, kpt=  0.6667  0.6667  0.5000 (reduced coord)
 -61.81407  -35.90536  -35.88670  -35.88274  -12.68867  -12.58921   -5.71189   -5.39490
 kpt#  49, nband=  8, wtk=  1.00000, kpt=  0.6833  0.6833  0.5250 (reduced coord)
 -61.81448  -35.91624  -35.88269  -35.87499  -12.69685  -12.60073   -5.70369   -5.45863
 kpt#  50, nband=  8, wtk=  1.00000, kpt=  0.7000  0.7000  0.5500 (reduced coord)
 -61.81433  -35.92727  -35.88331  -35.85555  -12.72279  -12.63784   -5.67096   -5.56389
 kpt#  51, nband=  8, wtk=  1.00000, kpt=  0.7167  0.7167  0.5750 (reduced coord)
 -61.81573  -35.93654  -35.88519  -35.83648  -12.76775  -12.70315   -5.63848   -5.60379
 kpt#  52, nband=  8, wtk=  1.00000, kpt=  0.7333  0.7333  0.6000 (reduced coord)
 -61.81735  -35.94000  -35.88747  -35.81780  -12.83178  -12.79683   -5.66000   -5.49735
 kpt#  53, nband=  8, wtk=  1.00000, kpt=  0.7500  0.7500  0.6250 (reduced coord)
 -61.81905  -35.93727  -35.89071  -35.79875  -12.92043  -12.90995   -5.62474   -5.34912
 kpt#  54, nband=  8, wtk=  1.00000, kpt=  0.7667  0.7667  0.6500 (reduced coord)
 -61.82189  -35.93092  -35.89474  -35.78089  -13.06164  -13.00816   -5.53595   -5.16204
 kpt#  55, nband=  8, wtk=  1.00000, kpt=  0.7833  0.7833  0.6750 (reduced coord)
 -61.82443  -35.91813  -35.89907  -35.76300  -13.22230  -13.11612   -5.40260   -4.93796
 kpt#  56, nband=  8, wtk=  1.00000, kpt=  0.8000  0.8000  0.7000 (reduced coord)
 -61.82749  -35.90427  -35.90060  -35.74620  -13.39484  -13.23197   -5.24566   -4.66763
 kpt#  57, nband=  8, wtk=  1.00000, kpt=  0.8167  0.8167  0.7250 (reduced coord)
 -61.83063  -35.90923  -35.87877  -35.73054  -13.57335  -13.35204   -5.12904   -4.64392
 kpt#  58, nband=  8, wtk=  1.00000, kpt=  0.8333  0.8333  0.7500 (reduced coord)
 -61.83426  -35.91529  -35.85353  -35.71619  -13.75241  -13.47282   -5.16011   -4.51966
 kpt#  59, nband=  8, wtk=  1.00000, kpt=  0.8500  0.8500  0.7750 (reduced coord)
 -61.83782  -35.92134  -35.82540  -35.70296  -13.92713  -13.59104   -5.29203   -4.28165
 kpt#  60, nband=  8, wtk=  1.00000, kpt=  0.8667  0.8667  0.8000 (reduced coord)
 -61.84174  -35.92748  -35.79722  -35.69069  -14.09338  -13.70380   -5.45540   -4.15002
 kpt#  61, nband=  8, wtk=  1.00000, kpt=  0.8833  0.8833  0.8250 (reduced coord)
 -61.84575  -35.93261  -35.76925  -35.68071  -14.24753  -13.80857   -5.62525   -4.07885
 kpt#  62, nband=  8, wtk=  1.00000, kpt=  0.9000  0.9000  0.8500 (reduced coord)
 -61.84967  -35.93850  -35.74182  -35.67178  -14.38662  -13.90330   -5.78967   -3.99746
 kpt#  63, nband=  8, wtk=  1.00000, kpt=  0.9167  0.9167  0.8750 (reduced coord)
 -61.85277  -35.94318  -35.71575  -35.66388  -14.50819  -13.98618   -5.94056   -3.92748
 kpt#  64, nband=  8, wtk=  1.00000, kpt=  0.9333  0.9333  0.9000 (reduced coord)
 -61.85555  -35.94689  -35.69315  -35.65758  -14.61028  -14.05581   -6.07190   -3.86210
 kpt#  65, nband=  8, wtk=  1.00000, kpt=  0.9500  0.9500  0.9250 (reduced coord)
 -61.85772  -35.94998  -35.67395  -35.65287  -14.69127  -14.11107   -6.17885   -3.80892
 kpt#  66, nband=  8, wtk=  1.00000, kpt=  0.9667  0.9667  0.9500 (reduced coord)
 -61.85970  -35.95306  -35.66007  -35.64960  -14.74997  -14.15115   -6.25787   -3.76992
 kpt#  67, nband=  8, wtk=  1.00000, kpt=  0.9833  0.9833  0.9750 (reduced coord)
 -61.86047  -35.95376  -35.65099  -35.64780  -14.78553  -14.17539   -6.30623   -3.74618
 kpt#  68, nband=  8, wtk=  1.00000, kpt=  1.0000  1.0000  1.0000 (reduced coord)
 -61.86093  -35.95493  -35.64827  -35.64661  -14.79744  -14.18355   -6.32258   -3.73826
 Total charge density [el/Bohr^3]
)     Maximum=    9.1821E-01  at reduced coord.    0.3333    0.6667    0.9778
)Next maximum=    9.1820E-01  at reduced coord.    0.3333    0.6667    0.0222
)     Minimum=    1.4837E-08  at reduced coord.    0.3333    0.6667    0.5000
)Next minimum=    1.5192E-08  at reduced coord.    0.4667    0.4000    0.5000
   Integrated=    2.6000E+01
 dataset: 2 , wall: 51.43 [s] , cpu: 50.61 [s] <<< TIME
 
== END DATASET(S) ==============================================================
================================================================================
  
 -outvars: echo values of variables after computation  --------
 
 These variables are accessible in NetCDF format (mos2o_OUT.nc)

            acell      5.9526373186E+00  5.9526373186E+00  3.7794522658E+01 Bohr
              amu      9.59400000E+01  3.20660000E+01
      chksymbreak           0
             ecut      2.50000000E+01 Hartree
           enunit1          0
           enunit2          1
           etotal1    -9.2327268562E+01
            fcart1    -2.1648156485E-05 -8.4401484256E-05  1.4918476496E-04
                       2.4763778225E-05  4.1152616281E-05  7.1382840746E-02
                      -3.1156217396E-06  4.3248867975E-05 -7.1532025511E-02
-          fftalg         512
           getden1          0
           getden2         -1
             iscf1          7
             iscf2         -2
           istwfk1       4    0    0    5    0    0    0    0    0    0
                         0    0    0    0    0    0    8    0    0    9
           istwfk2       2    0    0    0    0    0    0    0    0    0
                         0    0    0    0    0    0    0    3    0    0
                         0    0    0    0    0    0    0    0    0    0
                         0    0    0    0    0    0    0    0    0    0
                         0    0    0    0    0    0    0    0    0    0
                       outvar_i_n : Printing only first  50 k-points.
              ixc          11
           jdtset        1    2
              kpt1     0.00000000E+00  0.00000000E+00  5.00000000E-01
                       1.66666667E-01  0.00000000E+00  5.00000000E-01
                       3.33333333E-01  0.00000000E+00  5.00000000E-01
                       5.00000000E-01  0.00000000E+00  5.00000000E-01
                       0.00000000E+00  1.66666667E-01  5.00000000E-01
                       1.66666667E-01  1.66666667E-01  5.00000000E-01
                       3.33333333E-01  1.66666667E-01  5.00000000E-01
                       5.00000000E-01  1.66666667E-01  5.00000000E-01
                      -3.33333333E-01  1.66666667E-01  5.00000000E-01
                      -1.66666667E-01  1.66666667E-01  5.00000000E-01
                       0.00000000E+00  3.33333333E-01  5.00000000E-01
                       1.66666667E-01  3.33333333E-01  5.00000000E-01
                       3.33333333E-01  3.33333333E-01  5.00000000E-01
                       5.00000000E-01  3.33333333E-01  5.00000000E-01
                      -3.33333333E-01  3.33333333E-01  5.00000000E-01
                      -1.66666667E-01  3.33333333E-01  5.00000000E-01
                       0.00000000E+00  5.00000000E-01  5.00000000E-01
                       1.66666667E-01  5.00000000E-01  5.00000000E-01
                       3.33333333E-01  5.00000000E-01  5.00000000E-01
                       5.00000000E-01  5.00000000E-01  5.00000000E-01
              kpt2     0.00000000E+00  0.00000000E+00  0.00000000E+00
                       2.94117647E-02  0.00000000E+00  0.00000000E+00
                       5.88235294E-02  0.00000000E+00  0.00000000E+00
                       8.82352941E-02  0.00000000E+00  0.00000000E+00
                       1.17647059E-01  0.00000000E+00  0.00000000E+00
                       1.47058824E-01  0.00000000E+00  0.00000000E+00
                       1.76470588E-01  0.00000000E+00  0.00000000E+00
                       2.05882353E-01  0.00000000E+00  0.00000000E+00
                       2.35294118E-01  0.00000000E+00  0.00000000E+00
                       2.64705882E-01  0.00000000E+00  0.00000000E+00
                       2.94117647E-01  0.00000000E+00  0.00000000E+00
                       3.23529412E-01  0.00000000E+00  0.00000000E+00
                       3.52941176E-01  0.00000000E+00  0.00000000E+00
                       3.82352941E-01  0.00000000E+00  0.00000000E+00
                       4.11764706E-01  0.00000000E+00  0.00000000E+00
                       4.41176471E-01  0.00000000E+00  0.00000000E+00
                       4.70588235E-01  0.00000000E+00  0.00000000E+00
                       5.00000000E-01  0.00000000E+00  0.00000000E+00
                       4.83333333E-01  3.33333333E-02  0.00000000E+00
                       4.66666667E-01  6.66666667E-02  0.00000000E+00
                       4.50000000E-01  1.00000000E-01  0.00000000E+00
                       4.33333333E-01  1.33333333E-01  0.00000000E+00
                       4.16666667E-01  1.66666667E-01  0.00000000E+00
                       4.00000000E-01  2.00000000E-01  0.00000000E+00
                       3.83333333E-01  2.33333333E-01  0.00000000E+00
                       3.66666667E-01  2.66666667E-01  0.00000000E+00
                       3.50000000E-01  3.00000000E-01  0.00000000E+00
                       3.33333333E-01  3.33333333E-01  0.00000000E+00
                       3.50000000E-01  3.50000000E-01  2.50000000E-02
                       3.66666667E-01  3.66666667E-01  5.00000000E-02
                       3.83333333E-01  3.83333333E-01  7.50000000E-02
                       4.00000000E-01  4.00000000E-01  1.00000000E-01
                       4.16666667E-01  4.16666667E-01  1.25000000E-01
                       4.33333333E-01  4.33333333E-01  1.50000000E-01
                       4.50000000E-01  4.50000000E-01  1.75000000E-01
                       4.66666667E-01  4.66666667E-01  2.00000000E-01
                       4.83333333E-01  4.83333333E-01  2.25000000E-01
                       5.00000000E-01  5.00000000E-01  2.50000000E-01
                       5.16666667E-01  5.16666667E-01  2.75000000E-01
                       5.33333333E-01  5.33333333E-01  3.00000000E-01
                       5.50000000E-01  5.50000000E-01  3.25000000E-01
                       5.66666667E-01  5.66666667E-01  3.50000000E-01
                       5.83333333E-01  5.83333333E-01  3.75000000E-01
                       6.00000000E-01  6.00000000E-01  4.00000000E-01
                       6.16666667E-01  6.16666667E-01  4.25000000E-01
                       6.33333333E-01  6.33333333E-01  4.50000000E-01
                       6.50000000E-01  6.50000000E-01  4.75000000E-01
                       6.66666667E-01  6.66666667E-01  5.00000000E-01
                       6.83333333E-01  6.83333333E-01  5.25000000E-01
                       7.00000000E-01  7.00000000E-01  5.50000000E-01
                       outvar_i_n : Printing only first  50 k-points.
           kptopt1          1
           kptopt2         -3
         kptrlatt        6    0    0      0    6    0      0    0    1
          kptrlen1     3.57158239E+01
          kptrlen2     3.00000000E+01
P           mkmem1         20
P           mkmem2         68
            natom           3
            nband1         14
            nband2          8
           nbdbuf1          0
           nbdbuf2          2
           ndtset           2
           ndivsm1          0
           ndivsm2         10
            ngfft          30      30     180
             nkpt1         20
             nkpt2         68
            nstep          10
             nsym           1
           ntypat           2
              occ      2.000000  2.000000  2.000000  2.000000  2.000000  2.000000
                       2.000000  2.000000  2.000000  2.000000  2.000000  2.000000
                       2.000000  0.000000
            rprim      5.0000000000E-01 -8.6602540378E-01  0.0000000000E+00
                       5.0000000000E-01  8.6602540378E-01  0.0000000000E+00
                       0.0000000000E+00  0.0000000000E+00  1.0000000000E+00
           shiftk1     0.00000000E+00  0.00000000E+00  5.00000000E-01
           shiftk2     5.00000000E-01  5.00000000E-01  5.00000000E-01
          spgroup           1
           strten1     1.4458834445E-04  1.4603996338E-04  4.2351693733E-04
                       4.9145676037E-08  5.9246662468E-08 -4.0202826321E-07
           toldfe1     1.00000000E-06 Hartree
           toldfe2     0.00000000E+00 Hartree
           tolwfr1     0.00000000E+00
           tolwfr2     1.00000000E-12
            typat      1  2  2
              wtk1       0.02778    0.05556    0.05556    0.02778    0.05556    0.05556
                         0.05556    0.05556    0.05556    0.05556    0.05556    0.05556
                         0.05556    0.05556    0.05556    0.05556    0.02778    0.05556
                         0.05556    0.02778
              wtk2       1.00000    1.00000    1.00000    1.00000    1.00000    1.00000
                         1.00000    1.00000    1.00000    1.00000    1.00000    1.00000
                         1.00000    1.00000    1.00000    1.00000    1.00000    1.00000
                         1.00000    1.00000    1.00000    1.00000    1.00000    1.00000
                         1.00000    1.00000    1.00000    1.00000    1.00000    1.00000
                         1.00000    1.00000    1.00000    1.00000    1.00000    1.00000
                         1.00000    1.00000    1.00000    1.00000    1.00000    1.00000
                         1.00000    1.00000    1.00000    1.00000    1.00000    1.00000
                         1.00000    1.00000
                       outvars : Printing only first  50 k-points.
           xangst      1.5750000000E+00  9.0932667397E-01  0.0000000000E+00
                       1.5750000000E+00 -9.0932667397E-01 -1.8388847000E+00
                       1.5750000000E+00 -9.0932667397E-01  1.8388847000E+00
            xcart      2.9763186593E+00  1.7183783791E+00  0.0000000000E+00
                       2.9763186593E+00 -1.7183783791E+00 -3.4749884730E+00
                       2.9763186593E+00 -1.7183783791E+00  3.4749884730E+00
             xred      3.3333333333E-01  6.6666666667E-01  0.0000000000E+00
                       6.6666666667E-01  3.3333333333E-01 -9.1944235000E-02
                       6.6666666667E-01  3.3333333333E-01  9.1944235000E-02
            znucl       42.00000   16.00000
 
================================================================================
  
 Proc.   0 individual time (sec): cpu=         94.1  wall=         95.8
 
 Calculation completed.
.Delivered  63 WARNINGs and  10 COMMENTs to log file.

--- !FinalSummary
program: abinit
version: 9.10.3
start_datetime: Wed May 07 08:15:09 2025
end_datetime: Wed May 07 08:16:45 2025
overall_cpu_time:          94.1
overall_wall_time:          95.8
exit_requested_by_user: no 
timelimit: 0
pseudos: 
    Mo  : 228091cb5782e08cb8d68936b3c7e57b
    S   : ee4b2e2802f5df21cf2ecc26b1029f69
usepaw: 0
mpi_procs: 1
omp_threads: 1
num_warnings: 63
num_comments: 10
...
