  ABINIT 9.10.3
  
-instrng: 53 lines of input have been read from file mos2.abi
 
 
--- !COMMENT
src_file: m_dtfil.F90
src_line: 1441
message: |
    Output file: mos2.abo already exists.
...
 
 
--- !COMMENT
src_file: m_dtfil.F90
src_line: 1465
message: |
    Renaming old: mos2.abo to: mos2.abo0001
...
 

.Version 9.10.3 of ABINIT 
.(MPI version, prepared for a x86_64_linux_intel2021.6 computer) 

.Copyright (C) 1998-2022 ABINIT group . 
 ABINIT comes with ABSOLUTELY NO WARRANTY.
 It is free software, and you are welcome to redistribute it
 under certain conditions (GNU General Public License,
 see ~abinit/COPYING or http://www.gnu.org/copyleft/gpl.txt).

 ABINIT is a project of the Universite Catholique de Louvain,
 Corning Inc. and other collaborators, see ~abinit/doc/developers/contributors.txt .
 Please read https://docs.abinit.org/theory/acknowledgments for suggested
 acknowledgments of the ABINIT effort.
 For more information, see https://www.abinit.org .

.Starting date : Wed  7 May 2025.
- ( at 05h52 )
  
 
 ++++++++++++++++++++++++++++++++++++++++++++++++++++++++++++++++++++++++++++++
 
 === Build Information === 
  Version       : 9.10.3
  Build target  : x86_64_linux_intel2021.6
  Build date    : 20240126
 
 === Compiler Suite === 
  C compiler       : intel2021.6
  C++ compiler     : gnu2021.6
  Fortran compiler : intel2021.6
  CFLAGS           : -g -O2
  CXXFLAGS         : -g -O2 -mtune=native -march=native
  FCFLAGS          : -g -extend-source -nofpscomp     -I/shared/ucl/apps/NetCDF/4.9.2-in ...
  FC_LDFLAGS       :   -static-intel -static-libgcc
 
 === Optimizations === 
  Debug level        : basic
  Optimization level : standard
  Architecture       : intel_xeon
 
 === Multicore === 
  Parallel build : /shared/ucl/apps/intel/2020/impi/2019.6.166/intel64
  Parallel I/O   : 
  openMP support : 
  GPU support    : 
 
 === Connectors / Fallbacks === 
  LINALG flavor  : mkl
  FFT flavor     : dfti
  HDF5           : yes
  NetCDF         : yes
  NetCDF Fortran : yes
  LibXC          : yes
  Wannier90      : no
 
 === Experimental features === 
  Exports             : 
  GW double-precision : 
 
 ++++++++++++++++++++++++++++++++++++++++++++++++++++++++++++++++++++++++++++++
 

 ++++++++++++++++++++++++++++++++++++++++++++++++++++++++++++++++++++++++++++++
 Default optimizations:
   -O3


 Optimizations for 43_ptgroups:
   -O0


 ++++++++++++++++++++++++++++++++++++++++++++++++++++++++++++++++++++++++++++++


 ++++++++++++++++++++++++++++++++++++++++++++++++++++++++++++++++++++++++++++++
 CPP options activated during the build:

                  CC_INTEL                   CXX_GNU                  FC_INTEL
 
                 HAVE_DFTI HAVE_FC_ALLOCATABLE_DT...             HAVE_FC_ASYNC
 
  HAVE_FC_COMMAND_ARGUMENT      HAVE_FC_COMMAND_LINE        HAVE_FC_CONTIGUOUS
 
           HAVE_FC_CPUTIME              HAVE_FC_EXIT             HAVE_FC_FLUSH
 
             HAVE_FC_GAMMA   HAVE_FC_IEEE_ARITHMETIC   HAVE_FC_IEEE_EXCEPTIONS
 
             HAVE_FC_IOMSG     HAVE_FC_ISO_C_BINDING  HAVE_FC_ISO_FORTRAN_2008
 
        HAVE_FC_LONG_LINES        HAVE_FC_MOVE_ALLOC  HAVE_FC_ON_THE_FLY_SHAPE
 
           HAVE_FC_PRIVATE         HAVE_FC_PROTECTED           HAVE_FC_SHIFTLR
 
         HAVE_FC_STREAM_IO                 HAVE_HDF5             HAVE_HDF5_MPI
 
        HAVE_LIBPAW_ABINIT      HAVE_LIBTETRA_ABINIT                HAVE_LIBXC
 
         HAVE_LINALG_AXPBY        HAVE_LINALG_GEMM3M         HAVE_LINALG_GEMMT
 
  HAVE_LINALG_MKL_IMATCOPY   HAVE_LINALG_MKL_OMATADD  HAVE_LINALG_MKL_OMATCOPY
 
   HAVE_LINALG_MKL_THREADS     HAVE_LINALG_SCALAPACK                  HAVE_MPI
 
                 HAVE_MPI2       HAVE_MPI_IALLGATHER       HAVE_MPI_IALLREDUCE
 
        HAVE_MPI_IALLTOALL       HAVE_MPI_IALLTOALLV           HAVE_MPI_IBCAST
 
         HAVE_MPI_IGATHERV        HAVE_MPI_INTEGER16               HAVE_MPI_IO
 
 HAVE_MPI_TYPE_CREATE_S...               HAVE_NETCDF       HAVE_NETCDF_FORTRAN
 
   HAVE_NETCDF_FORTRAN_MPI           HAVE_NETCDF_MPI             HAVE_OS_LINUX
 
         HAVE_TIMER_ABINIT                                                      
 ++++++++++++++++++++++++++++++++++++++++++++++++++++++++++++++++++++++++++++++

- input  file    -> mos2.abi
- output file    -> mos2.abo
- root for input  files -> mos2i
- root for output files -> mos2o
 
 Netcdf library supports MPI-IO
-instrng: 53 lines of input have been read from file mos2.abi
 
 For atom type 1, psp file is ./persudo/Mo.psp8
 For atom type 2, psp file is ./persudo/S.psp8
  read the values zionpsp= 14.0 , pspcod=   8 , lmax=   2
  read the values zionpsp=  6.0 , pspcod=   8 , lmax=   2
 
 inpspheads: deduce mpsang = 3, n1xccc = 2501.

======================================================= 
 invars1m : enter jdtset= 1
 
 symlatt: the Bravais lattice is hP (primitive hexagonal)
  xred   is defined in input file
 ingeo: takes atomic coordinates from input array xred
 
 symlatt: the Bravais lattice is hP (primitive hexagonal)
 
 symlatt: the Bravais lattice is hP (primitive hexagonal)
 
--- !COMMENT
src_file: m_symfind.F90
src_line: 995
message: |
    The Bravais lattice determined only from the primitive
    vectors, bravais(1)=  6, is more symmetric
    than the real one, iholohedry=  1, obtained by taking into
    account the atomic positions. Start deforming the primitive vector set.
...
 
 
 symlatt: the Bravais lattice is oC (one-face-centered orthorhombic)
 
--- !COMMENT
src_file: m_symfind.F90
src_line: 1004
message: |
    The Bravais lattice determined from modified primitive
    vectors, bravais(1)=  3, has a lower symmetry than before,
    but is still more symmetric than the real one, iholohedry=  1
    obtained by taking into account the atomic positions.
...
 
 
 symlatt: the Bravais lattice is aP (primitive triclinic)
 symspgr: spgroup=   1  P1   (=C1^1)

======================================================= 
 invars1m : enter jdtset= 2
 
 symlatt: the Bravais lattice is hP (primitive hexagonal)
  xred   is defined in input file
 ingeo: takes atomic coordinates from input array xred
 
 symlatt: the Bravais lattice is hP (primitive hexagonal)
 
 symlatt: the Bravais lattice is hP (primitive hexagonal)
 
--- !COMMENT
src_file: m_symfind.F90
src_line: 995
message: |
    The Bravais lattice determined only from the primitive
    vectors, bravais(1)=  6, is more symmetric
    than the real one, iholohedry=  1, obtained by taking into
    account the atomic positions. Start deforming the primitive vector set.
...
 
 
 symlatt: the Bravais lattice is oC (one-face-centered orthorhombic)
 
--- !COMMENT
src_file: m_symfind.F90
src_line: 1004
message: |
    The Bravais lattice determined from modified primitive
    vectors, bravais(1)=  3, has a lower symmetry than before,
    but is still more symmetric than the real one, iholohedry=  1
    obtained by taking into account the atomic positions.
...
 
 
 symlatt: the Bravais lattice is aP (primitive triclinic)
 symspgr: spgroup=   1  P1   (=C1^1)
 Real(R)+Recip(G) space primitive vectors, cartesian coordinates (Bohr,Bohr^-1):
 R(1)=  2.9763187 -5.1551351  0.0000000  G(1)=  0.1679928 -0.0969907  0.0000000
 R(2)=  2.9763187  5.1551351  0.0000000  G(2)=  0.1679928  0.0969907  0.0000000
 R(3)=  0.0000000  0.0000000 37.7945227  G(3)=  0.0000000  0.0000000  0.0264589
 Unit cell volume ucvol=  1.1597873E+03 bohr^3
 Unit cell volume ucvol=  1.1597873E+03 bohr^3
 Angles (23,13,12)=  9.00000000E+01  9.00000000E+01  1.20000000E+02 degrees
 Angles (23,13,12)=  9.00000000E+01  9.00000000E+01  1.20000000E+02 degrees
  0.111995176421164       0.111995176421164     
 
 mknormpath : total number of points on the path:       21
 
 Number of divisions for each segment of the normalized path:
 0.00000 0.00000 0.00000 ==>  0.33333 0.33333 0.00000 ( ndiv:    10 )
 0.33333 0.33333 0.00000 ==>  0.00000 0.00000 0.00000 ( ndiv:    10 )
 
 
 invars2: take the default value of fband=  1.25000000E-01
 
--- !WARNING
src_file: m_invars2.F90
src_line: 2098
message: |
    nbdbuf is not specified in input, using `nbdbuf = 2*nspinor` that may be too small!
    As a consequence, the NSCF cycle may have problems to converge the last bands within nstep iterations.
    To avoid this problem specify nbdbuf in the input file and adjust nband accordingly.
...
 
 Real(R)+Recip(G) space primitive vectors, cartesian coordinates (Bohr,Bohr^-1):
 R(1)=  2.9763187 -5.1551351  0.0000000  G(1)=  0.1679928 -0.0969907  0.0000000
 R(2)=  2.9763187  5.1551351  0.0000000  G(2)=  0.1679928  0.0969907  0.0000000
 R(3)=  0.0000000  0.0000000 37.7945227  G(3)=  0.0000000  0.0000000  0.0264589
 Unit cell volume ucvol=  1.1597873E+03 bohr^3
 Unit cell volume ucvol=  1.1597873E+03 bohr^3
 Angles (23,13,12)=  9.00000000E+01  9.00000000E+01  1.20000000E+02 degrees
 Angles (23,13,12)=  9.00000000E+01  9.00000000E+01  1.20000000E+02 degrees
  0.111995176421164       0.111995176421164     
 
 mknormpath : total number of points on the path:       21
 
 Number of divisions for each segment of the normalized path:
 0.00000 0.00000 0.00000 ==>  0.33333 0.33333 0.00000 ( ndiv:    10 )
 0.33333 0.33333 0.00000 ==>  0.00000 0.00000 0.00000 ( ndiv:    10 )
 
 
 LMac pawujat is:            0
 LMac pawujat is:            0
 For input ecut=  1.200000E+01 best grid ngfft=      20      20     120
       max ecut=  1.243697E+01
 
 ==== FFT mesh ====
  FFT mesh divisions ........................    20   20  120
  Augmented FFT divisions ...................    21   21  120
  FFT algorithm .............................   512
  FFT cache size ............................    16
 getmpw: optimal value of mpw= 2322
 For input ecut=  1.200000E+01 best grid ngfft=      20      20     120
       max ecut=  1.243697E+01
 
 ==== FFT mesh ====
  FFT mesh divisions ........................    20   20  120
  Augmented FFT divisions ...................    21   21  120
  FFT algorithm .............................   512
  FFT cache size ............................    16
 getmpw: optimal value of mpw= 2321
 
 DATASET    1 : space group P1 (#  1); Bravais aP (primitive triclinic)
 
 getdim_nloc: deduce lmnmax  =  18, lnmax  =   6,
                      lmnmaxso=  18, lnmaxso=   6.
memory: analysis of memory needs
================================================================================
 Values of the parameters that define the memory need for DATASET  1.
     intxc =       0    ionmov =       0      iscf =       7    lmnmax =       6
     lnmax =       6     mgfft =     120  mpssoang =       3    mqgrid =    5894
     natom =       3  nloc_mem =       1    nspden =       1   nspinor =       1
    nsppol =       1      nsym =       1    n1xccc =    2501    ntypat =       2
    occopt =       1   xclevel =       2
-    mband =          14        mffmem =           1         mkmem =          20
       mpw =        2322          nfft =       48000          nkpt =          20
================================================================================
P This job should need less than                      26.745 Mbytes of memory.
  Rough estimation (10% accuracy) of disk space for files :
_ WF disk file :      9.923 Mbytes ; DEN or POT disk file :      0.368 Mbytes.
================================================================================
 
 Biggest array : cg(disk), with      9.9227 MBytes.
 memana : allocated an array of      9.923 Mbytes, for testing purposes.
 memana: allocated      26.745Mbytes, for testing purposes. 
 The job will continue.
 
 DATASET    2 : space group P1 (#  1); Bravais aP (primitive triclinic)
 
 getdim_nloc: deduce lmnmax  =  18, lnmax  =   6,
                      lmnmaxso=  18, lnmaxso=   6.
memory: analysis of memory needs
================================================================================
 Values of the parameters that define the memory need for DATASET  2.
     intxc =       0    ionmov =       0      iscf =      -2    lmnmax =       6
     lnmax =       6     mgfft =     120  mpssoang =       3    mqgrid =    5894
     natom =       3  nloc_mem =       1    nspden =       1   nspinor =       1
    nsppol =       1      nsym =       1    n1xccc =    2501    ntypat =       2
    occopt =       1   xclevel =       2
-    mband =           4        mffmem =           1         mkmem =          21
       mpw =        2321          nfft =       48000          nkpt =          21
================================================================================
P This job should need less than                      13.925 Mbytes of memory.
  Rough estimation (10% accuracy) of disk space for files :
_ WF disk file :      2.977 Mbytes ; DEN or POT disk file :      0.368 Mbytes.
================================================================================
 
 Biggest array : cg(disk), with      2.9769 MBytes.
 memana : allocated an array of      2.977 Mbytes, for testing purposes.
 memana: allocated      13.925Mbytes, for testing purposes. 
 The job will continue.
--------------------------------------------------------------------------------
------------- Echo of variables that govern the present computation ------------
--------------------------------------------------------------------------------
-
- outvars: echo of selected default values                                      
-   iomode0 =  0 , fftalg0 =512 , wfoptalg0 =  0
-
- outvars: echo of global parameters not present in the input file              
-  max_nthreads =    0
-
 -outvars: echo values of preprocessed input variables --------
 
 These variables are accessible in NetCDF format (mos2o_OUT.nc)

            acell      5.9526373186E+00  5.9526373186E+00  3.7794522658E+01 Bohr
              amu      9.59400000E+01  3.20660000E+01
      chksymbreak           0
             ecut      1.20000000E+01 Hartree
           enunit1          0
           enunit2          1
-          fftalg         512
           getden1          0
           getden2         -1
             iscf1          7
             iscf2         -2
           istwfk1       4    0    0    5    0    0    0    0    0    0
                         0    0    0    0    0    0    8    0    0    9
           istwfk2       2    0    0    0    0    0    0    0    0    0
                         0    0    0    0    0    0    0    0    0    0
                         2
              ixc          11
           jdtset        1    2
              kpt1     0.00000000E+00  0.00000000E+00  5.00000000E-01
                       1.66666667E-01  0.00000000E+00  5.00000000E-01
                       3.33333333E-01  0.00000000E+00  5.00000000E-01
                       5.00000000E-01  0.00000000E+00  5.00000000E-01
                       0.00000000E+00  1.66666667E-01  5.00000000E-01
                       1.66666667E-01  1.66666667E-01  5.00000000E-01
                       3.33333333E-01  1.66666667E-01  5.00000000E-01
                       5.00000000E-01  1.66666667E-01  5.00000000E-01
                      -3.33333333E-01  1.66666667E-01  5.00000000E-01
                      -1.66666667E-01  1.66666667E-01  5.00000000E-01
                       0.00000000E+00  3.33333333E-01  5.00000000E-01
                       1.66666667E-01  3.33333333E-01  5.00000000E-01
                       3.33333333E-01  3.33333333E-01  5.00000000E-01
                       5.00000000E-01  3.33333333E-01  5.00000000E-01
                      -3.33333333E-01  3.33333333E-01  5.00000000E-01
                      -1.66666667E-01  3.33333333E-01  5.00000000E-01
                       0.00000000E+00  5.00000000E-01  5.00000000E-01
                       1.66666667E-01  5.00000000E-01  5.00000000E-01
                       3.33333333E-01  5.00000000E-01  5.00000000E-01
                       5.00000000E-01  5.00000000E-01  5.00000000E-01
              kpt2     0.00000000E+00  0.00000000E+00  0.00000000E+00
                       3.33333333E-02  3.33333333E-02  0.00000000E+00
                       6.66666667E-02  6.66666667E-02  0.00000000E+00
                       1.00000000E-01  1.00000000E-01  0.00000000E+00
                       1.33333333E-01  1.33333333E-01  0.00000000E+00
                       1.66666667E-01  1.66666667E-01  0.00000000E+00
                       2.00000000E-01  2.00000000E-01  0.00000000E+00
                       2.33333333E-01  2.33333333E-01  0.00000000E+00
                       2.66666667E-01  2.66666667E-01  0.00000000E+00
                       3.00000000E-01  3.00000000E-01  0.00000000E+00
                       3.33333333E-01  3.33333333E-01  0.00000000E+00
                       3.00000000E-01  3.00000000E-01  0.00000000E+00
                       2.66666667E-01  2.66666667E-01  0.00000000E+00
                       2.33333333E-01  2.33333333E-01  0.00000000E+00
                       2.00000000E-01  2.00000000E-01  0.00000000E+00
                       1.66666667E-01  1.66666667E-01  0.00000000E+00
                       1.33333333E-01  1.33333333E-01  0.00000000E+00
                       1.00000000E-01  1.00000000E-01  0.00000000E+00
                       6.66666667E-02  6.66666667E-02  0.00000000E+00
                       3.33333333E-02  3.33333333E-02  0.00000000E+00
                       0.00000000E+00  0.00000000E+00  0.00000000E+00
           kptopt1          1
           kptopt2         -2
         kptrlatt        6    0    0      0    6    0      0    0    1
          kptrlen1     3.57158239E+01
          kptrlen2     3.00000000E+01
P           mkmem1         20
P           mkmem2         21
            natom           3
            nband1         14
            nband2          4
           nbdbuf1          0
           nbdbuf2          2
           ndtset           2
           ndivsm1          0
           ndivsm2         10
            ngfft          20      20     120
             nkpt1         20
             nkpt2         21
            nstep          10
             nsym           1
           ntypat           2
              occ      2.000000  2.000000  2.000000  2.000000  2.000000  2.000000
                       2.000000  2.000000  2.000000  2.000000  2.000000  2.000000
                       2.000000  0.000000
            rprim      5.0000000000E-01 -8.6602540378E-01  0.0000000000E+00
                       5.0000000000E-01  8.6602540378E-01  0.0000000000E+00
                       0.0000000000E+00  0.0000000000E+00  1.0000000000E+00
           shiftk1     0.00000000E+00  0.00000000E+00  5.00000000E-01
           shiftk2     5.00000000E-01  5.00000000E-01  5.00000000E-01
          spgroup           1
           toldfe1     1.00000000E-06 Hartree
           toldfe2     0.00000000E+00 Hartree
           tolwfr1     0.00000000E+00
           tolwfr2     1.00000000E-12
            typat      1  2  2
              wtk1       0.02778    0.05556    0.05556    0.02778    0.05556    0.05556
                         0.05556    0.05556    0.05556    0.05556    0.05556    0.05556
                         0.05556    0.05556    0.05556    0.05556    0.02778    0.05556
                         0.05556    0.02778
              wtk2       1.00000    1.00000    1.00000    1.00000    1.00000    1.00000
                         1.00000    1.00000    1.00000    1.00000    1.00000    1.00000
                         1.00000    1.00000    1.00000    1.00000    1.00000    1.00000
                         1.00000    1.00000    1.00000
           xangst      1.5750000000E+00  9.0932667397E-01  0.0000000000E+00
                       1.5750000000E+00 -9.0932667397E-01 -1.8388847000E+00
                       1.5750000000E+00 -9.0932667397E-01  1.8388847000E+00
            xcart      2.9763186593E+00  1.7183783791E+00  0.0000000000E+00
                       2.9763186593E+00 -1.7183783791E+00 -3.4749884730E+00
                       2.9763186593E+00 -1.7183783791E+00  3.4749884730E+00
             xred      3.3333333333E-01  6.6666666667E-01  0.0000000000E+00
                       6.6666666667E-01  3.3333333333E-01 -9.1944235000E-02
                       6.6666666667E-01  3.3333333333E-01  9.1944235000E-02
            znucl       42.00000   16.00000
 
================================================================================
 
 chkinp: Checking input parameters for consistency, jdtset=   1.
 
 chkinp: Checking input parameters for consistency, jdtset=   2.
 DATA TYPE INFORMATION: 
 REAL:      Data type name: REAL(DP) 
            Kind value:      8
            Precision:      15
            Smallest nonnegligible quantity relative to 1: 0.22204460E-015
            Smallest positive number:                      0.22250739E-307
            Largest representable number:                  0.17976931E+309
 INTEGER:   Data type name: INTEGER(default) 
            Kind value: 4
            Bit size:   32
            Largest representable number: 2147483647
 LOGICAL:   Data type name: LOGICAL 
            Kind value: 4
 CHARACTER: Data type name: CHARACTER             Kind value: 1

  ==== OpenMP parallelism is OFF ====
 
  ==== Using MPI-2 specifications ==== 
  MPI-IO support is ON
  xmpi_tag_ub ................   1073741823
  xmpi_bsize_ch ..............            1
  xmpi_bsize_int .............            4
  xmpi_bsize_sp ..............            4
  xmpi_bsize_dp ..............            8
  xmpi_bsize_spc .............            8
  xmpi_bsize_dpc .............           16
  xmpio_bsize_frm ............            4
  xmpi_address_kind ..........            8
  xmpi_offset_kind ...........            8
  MPI_WTICK ..................   4.009472248568494E-010
 
================================================================================
== DATASET  1 ==================================================================
-   mpi_nproc: 1, omp_nthreads: -1 (-1 if OMP is not activated)
 
 
--- !COMMENT
src_file: m_xgScalapack.F90
src_line: 235
message: |
    xgScalapack in auto mode
...
 
 
 getdim_nloc: deduce lmnmax  =  18, lnmax  =   6,
                      lmnmaxso=  18, lnmaxso=   6.
 Exchange-correlation functional for the present dataset will be:
  GGA: Perdew-Burke-Ernzerhof functional - ixc=11
 Citation for XC functional:
  J.P.Perdew, K.Burke, M.Ernzerhof, PRL 77, 3865 (1996)
 
 Unit cell volume ucvol=  1.1597873E+03 bohr^3
 Angles (23,13,12)=  9.00000000E+01  9.00000000E+01  1.20000000E+02 degrees
 
 getcut: wavevector=  0.0000  0.0000  0.0000  ngfft=  20  20 120
         ecut(hartree)=     12.000   => boxcut(ratio)=   2.03609
- pspini: atom type   1  psp file is ./persudo/Mo.psp8
- pspatm: opening atomic psp file    ./persudo/Mo.psp8
- Mo    ONCVPSP-3.2.3.1  r_core=   1.45541   1.45541   1.35488
- 42.00000  14.00000    170510                znucl, zion, pspdat
    8   11    2    4       600   0.00000      pspcod,pspxc,lmax,lloc,mmax,r2well
    5.99000000000000    3.00000000000000    0.00000000000000   rchrg,fchrg,qchrg
     nproj     2     2     2
     extension_switch     1
  valence charge (before rescaling) integrates to:    13.9106199290666     
  pspatm : epsatm=   15.95693586
         --- l  ekb(1:nproj) -->
             0   13.833287    1.350687
             1    8.015347    1.134034
             2    2.765699    0.969071
 pspatm: atomic psp has been read  and splines computed
 
- pspini: atom type   2  psp file is ./persudo/S.psp8
- pspatm: opening atomic psp file    ./persudo/S.psp8
- S     ONCVPSP-4.0.1  r_core=   1.45687   1.45687   1.45687
- 16.00000   6.00000    220131                znucl, zion, pspdat
    8   11    2    4       600   0.00000      pspcod,pspxc,lmax,lloc,mmax,r2well
    5.99000000000000    6.00000000000000    0.00000000000000   rchrg,fchrg,qchrg
     nproj     2     2     2
     extension_switch     1
  valence charge (before rescaling) integrates to:    5.98952054080779     
  pspatm : epsatm=    9.04179351
         --- l  ekb(1:nproj) -->
             0    6.774234    0.542270
             1    3.022426    0.737017
             2   -5.033160   -1.531047
 pspatm: atomic psp has been read  and splines computed
 
   8.85053595E+02                                ecore*ucvol(ha*bohr**3)
 ==== Info on pseudopotentials ====
  Norm-conserving pseudopotentials
  Number of pseudopotentials ..    2
  Number of types of atoms   ..    2
  Scalar calculation (no spin-orbit term)
  Nonlocal part applied using Legendre polynomials
  Max number of non-local projectors over l and type   2
  Highest angular momentum +1 .......   3
  Max number of (l,n)   components ..   6
  Max number of (l,m,n) components ..   6
 
 Pseudo-Core Charge Info: 
   Number of radial points for pseudo-core charge .. 2501
   XC core-correction treatment (optnlxccc) ........    1
   Radius for pseudo-core charge for each type ..... 
 
  - Atom type    1 has pseudo-core radius ..  5.9900
  - Atom type    2 has pseudo-core radius ..  5.9900
 
 Info on the Q-grid used for form factors in spline form: 
   Number of q-points for radial functions ffspl ..   5894
   Number of q-points for vlspl ...................   5894
   vloc is computed in Reciprocal Space
   model core charge treated in real-space
 
  XC functional for type 1 is 11
  Pseudo valence available: yes
  XC functional for type 2 is 11
  Pseudo valence available: yes
 
 wfconv:    14 bands initialized randomly with npw=  1169, for ikpt=     1
 wfconv:    14 bands initialized randomly with npw=  2322, for ikpt=     2
 wfconv:    14 bands initialized randomly with npw=  2302, for ikpt=     3
 wfconv:    14 bands initialized randomly with npw=  1148, for ikpt=     4
 wfconv:    14 bands initialized randomly with npw=  2322, for ikpt=     5
 wfconv:    14 bands initialized randomly with npw=  2310, for ikpt=     6
 wfconv:    14 bands initialized randomly with npw=  2294, for ikpt=     7
 wfconv:    14 bands initialized randomly with npw=  2294, for ikpt=     8
 wfconv:    14 bands initialized randomly with npw=  2310, for ikpt=     9
 wfconv:    14 bands initialized randomly with npw=  2322, for ikpt=    10
 wfconv:    14 bands initialized randomly with npw=  2302, for ikpt=    11
 wfconv:    14 bands initialized randomly with npw=  2294, for ikpt=    12
 wfconv:    14 bands initialized randomly with npw=  2244, for ikpt=    13
 wfconv:    14 bands initialized randomly with npw=  2294, for ikpt=    14
 wfconv:    14 bands initialized randomly with npw=  2302, for ikpt=    15
 wfconv:    14 bands initialized randomly with npw=  2310, for ikpt=    16
 wfconv:    14 bands initialized randomly with npw=  1148, for ikpt=    17
 wfconv:    14 bands initialized randomly with npw=  2294, for ikpt=    18
 wfconv:    14 bands initialized randomly with npw=  2294, for ikpt=    19
 wfconv:    14 bands initialized randomly with npw=  1148, for ikpt=    20
_setup2: Arith. and geom. avg. npw (full set) are    2301.278    2301.207
 initro: for itypat=  1, take pseudo charge density from pp file
 initro: for itypat=  2, take pseudo charge density from pp file
 
================================================================================
 
 getcut: wavevector=  0.0000  0.0000  0.0000  ngfft=  20  20 120
         ecut(hartree)=     12.000   => boxcut(ratio)=   2.03609
 
 1/G**2 cut-off applied in the following step : cutoff-mode = CRYSTAL
 
 1/G**2 cut-off applied in the following step : cutoff-mode = CRYSTAL
 
 1/G**2 cut-off applied in the following step : cutoff-mode = CRYSTAL
 
--- !WARNING
src_file: m_drivexc.F90
src_line: 783
message: |
    Density went too small (lower than xc_denpos) at 12956 points
    and was set to xc_denpos =   1.00E-14. Lowest was  -0.55E-03.
    This might be due to (1) too low boxcut or (2) too low ecut for
     pseudopotential core charge, or (3) too low ecut for estimated initial density.
     Possible workarounds : increase ecut, or define the input variable densty,
     with a value larger than the guess for the decay length, or initialize your,
     density with a preliminary LDA or GGA-PBE if you are using a more exotic xc functional.
...
 
 
 ITER STEP NUMBER     1
 Max number of non-self-consistent loops: 2
 Total charge density [el/Bohr^3]
)     Maximum=    7.3506E-01  at reduced coord.    0.3500    0.5500    0.9917
)     Minimum=    1.1015E-04  at reduced coord.    0.0000    0.8500    0.4000
   Integrated=    2.6000E+01
 
 1/G**2 cut-off applied in the following step : cutoff-mode = CRYSTAL
 ETOT  1  -90.815120034503    -9.082E+01 6.811E-02 4.140E+03
 scprqt: <Vxc>= -1.8476505E-01 hartree
 
 Simple mixing update:
  residual square of the potential:    289.296459256589
{SCF_istep: 1 , Vnl|psi>: 2800 , wall_time: '  5.62 [s] '} <<< TIME
 
 ITER STEP NUMBER     2
 Max number of non-self-consistent loops: 2
 Total charge density [el/Bohr^3]
)     Maximum=    1.0727E+00  at reduced coord.    0.5000    0.7500    0.0000
)     Minimum=    1.2442E-06  at reduced coord.    0.8500    0.1500    0.5000
   Integrated=    2.6000E+01
 ETOT  2  -85.882551964425     4.933E+00 2.318E-02 2.635E+04
 scprqt: <Vxc>= -1.4975126E-01 hartree
 
 Pulay update with  1 previous iterations:
 mixing of old trial potential: alpha(m:m-4)=  0.290      0.710
{SCF_istep: 2 , Vnl|psi>: 2776 , wall_time: '  1.90 [s] '} <<< TIME
 
 ITER STEP NUMBER     3
 Total charge density [el/Bohr^3]
)     Maximum=    8.2201E-01  at reduced coord.    0.2500    0.7500    0.0000
)     Minimum=    9.6437E-07  at reduced coord.    0.6000    0.3000    0.5917
   Integrated=    2.6000E+01
 ETOT  3  -91.820064177896    -5.938E+00 1.368E-01 2.671E+01
 scprqt: <Vxc>= -1.5668469E-01 hartree
 
 Pulay update with  2 previous iterations:
 mixing of old trial potential: alpha(m:m-4)=  0.834      0.489E-01  0.117
{SCF_istep: 3 , Vnl|psi>: 1340 , wall_time: '  0.95 [s] '} <<< TIME
 
 ITER STEP NUMBER     4
 Total charge density [el/Bohr^3]
)     Maximum=    8.1948E-01  at reduced coord.    0.2500    0.5000    0.0000
)     Minimum=    1.7591E-07  at reduced coord.    0.2000    0.1000    0.5000
   Integrated=    2.6000E+01
 ETOT  4  -91.850164516229    -3.010E-02 3.396E-03 1.002E+01
 scprqt: <Vxc>= -1.5518603E-01 hartree
 
 Pulay update with  3 previous iterations:
 mixing of old trial potential: alpha(m:m-4)=  0.570      0.380      0.202E-01  0.294E-01
{SCF_istep: 4 , Vnl|psi>: 1395 , wall_time: '  0.97 [s] '} <<< TIME
 
 ITER STEP NUMBER     5
 Total charge density [el/Bohr^3]
)     Maximum=    8.2212E-01  at reduced coord.    0.2500    0.5000    0.0000
)     Minimum=    1.2433E-07  at reduced coord.    0.0000    0.0000    0.5000
   Integrated=    2.6000E+01
 ETOT  5  -91.852037224722    -1.873E-03 1.499E-03 9.651E+00
 scprqt: <Vxc>= -1.5511539E-01 hartree
 
 Pulay update with  4 previous iterations:
 mixing of old trial potential: alpha(m:m-4)=  0.667      0.674E-01  0.236      0.104E-01  0.184E-01
{SCF_istep: 5 , Vnl|psi>: 1370 , wall_time: '  0.94 [s] '} <<< TIME
 
 ITER STEP NUMBER     6
 Total charge density [el/Bohr^3]
)     Maximum=    8.2255E-01  at reduced coord.    0.2500    0.5000    0.0000
)     Minimum=    1.2287E-07  at reduced coord.    0.0000    0.0000    0.5000
   Integrated=    2.6000E+01
 ETOT  6  -91.852310834366    -2.736E-04 4.551E-04 6.776E+00
 scprqt: <Vxc>= -1.5514968E-01 hartree
 
 Pulay update with  5 previous iterations:
 mixing of old trial potential: alpha(m:m-4)=   1.18     -0.658E-01 -0.201      0.760E-01  0.987E-03
{SCF_istep: 6 , Vnl|psi>: 1348 , wall_time: '  0.92 [s] '} <<< TIME
 
 ITER STEP NUMBER     7
 Total charge density [el/Bohr^3]
)     Maximum=    8.2301E-01  at reduced coord.    0.2500    0.5000    0.0000
)     Minimum=    1.2146E-07  at reduced coord.    0.0000    0.0000    0.5000
   Integrated=    2.6000E+01
 ETOT  7  -91.852414396071    -1.036E-04 3.229E-04 4.584E+00
 scprqt: <Vxc>= -1.5523983E-01 hartree
 
 Pulay update with  6 previous iterations:
 mixing of old trial potential: alpha(m:m-4)=  0.734      0.532     -0.108     -0.163      0.553E-02
{SCF_istep: 7 , Vnl|psi>: 1398 , wall_time: '  0.96 [s] '} <<< TIME
 
 ITER STEP NUMBER     8
 Total charge density [el/Bohr^3]
)     Maximum=    8.2316E-01  at reduced coord.    0.2500    0.7500    0.0000
)     Minimum=    1.2217E-07  at reduced coord.    0.0000    0.0000    0.5000
   Integrated=    2.6000E+01
 ETOT  8  -91.852456058699    -4.166E-05 1.189E-04 3.324E+00
 scprqt: <Vxc>= -1.5530532E-01 hartree
 
 Pulay update with  7 previous iterations:
 mixing of old trial potential: alpha(m:m-4)=  0.825      0.203E-01  0.200      0.441E-01 -0.867E-01
{SCF_istep: 8 , Vnl|psi>: 1349 , wall_time: '  0.93 [s] '} <<< TIME
 
 ITER STEP NUMBER     9
 Total charge density [el/Bohr^3]
)     Maximum=    8.2307E-01  at reduced coord.    0.2500    0.7500    0.0000
)     Minimum=    1.2191E-07  at reduced coord.    0.0000    0.0000    0.5000
   Integrated=    2.6000E+01
 ETOT  9  -91.852483506749    -2.745E-05 1.220E-04 2.607E+00
 scprqt: <Vxc>= -1.5533991E-01 hartree
 
 Pulay update with  7 previous iterations:
 mixing of old trial potential: alpha(m:m-4)=   1.93     -0.341     -0.626     -0.118      0.116
{SCF_istep: 9 , Vnl|psi>: 1400 , wall_time: '  0.96 [s] '} <<< TIME
 
 ITER STEP NUMBER    10
 Total charge density [el/Bohr^3]
)     Maximum=    8.2283E-01  at reduced coord.    0.2500    0.5000    0.0000
)     Minimum=    1.2182E-07  at reduced coord.    0.0000    0.0000    0.5000
   Integrated=    2.6000E+01
 ETOT 10  -91.852535751059    -5.224E-05 6.046E-05 1.212E+00
 scprqt: <Vxc>= -1.5542645E-01 hartree
 
 Pulay update with  7 previous iterations:
 mixing of old trial potential: alpha(m:m-4)=  0.827      0.512     -0.121     -0.160     -0.149
 
 -------------------------------------------------------------------------------------------------
 Ekinetic   = :     2.877403E+01 Ha ,    7.829813E+02 eV
 Evext_l    = :    -5.722270E+02 Ha ,   -1.557109E+04 eV
 Evext_nl   = :     1.201570E+01 Ha ,    3.269637E+02 eV
 Epsp_core  = :     7.631172E-01 Ha ,    2.076547E+01 eV
 Ehartree   = :     2.656146E+02 Ha ,    7.227741E+03 eV
 Exc_ks     = :    -1.636614E+01 Ha ,   -4.453453E+02 eV
 Enn        = :     1.895732E+02 Ha ,    5.158549E+03 eV
 -------------------------------------------------------------------------------------------------
 Etot       = :    -9.185254E+01 Ha ,   -2.499435E+03 eV
 -------------------------------------------------------------------------------------------------
 
 Cartesian components of stress tensor (hartree/bohr^3)
  sigma(1 1)=  7.92501464E-04  sigma(3 2)=  2.48297723E-08
  sigma(2 2)=  7.92398419E-04  sigma(3 1)= -3.73240208E-08
  sigma(3 3)=  1.11238131E-03  sigma(2 1)=  3.68943221E-08
 

--- !ScfConvergenceWarning
message: |
    nstep 10 was not enough SCF cycles to converge.
...
 
 scprqt:  WARNING -
  nstep=   10 was not enough SCF cycles to converge;
  maximum energy difference=  5.224E-05 exceeds toldfe=  1.000E-06
 
 
 fftdatar_write: About to write data to: mos2o_DS1_DEN with iomode: IO_MODE_FORTRAN
 IO operation , wall:  0.12 [s] , cpu:  0.00 [s] <<< TIME
- Creating HDf5 file with MPI-IO support: mos2o_DS1_GSR.nc
 Integrated electronic density in atomic spheres:
 ------------------------------------------------
 Atom  Sphere_radius  Integrated_density
    1        2.00000         10.37238136
    2        2.00000          3.83131304
    3        2.00000          3.83137151
================================================================================
 
 ----iterations are completed or convergence reached----
 
 
 === Gap info ===
  >>>> For spin  1
   Minimum direct gap =   1.5792 [eV], located at k-point      :   0.1667  0.1667  0.5000
   Fundamental gap    =   0.9541 [eV], Top of valence bands at :   0.3333  0.3333  0.5000
                                       Bottom of conduction at :  -0.3333  0.1667  0.5000
 Mean square residual over all n,k,spin=   67.706E-08; max=  60.464E-06
   0.0000  0.0000  0.5000    1  1.25731E-05 kpt; spin; max resid(k); each band:
  9.11E-10 1.08E-09 1.80E-10 1.33E-10 3.45E-08 3.86E-08 8.12E-08 4.46E-08
  1.27E-08 8.92E-09 9.59E-08 2.25E-08 1.12E-08 1.26E-05
   0.1667  0.0000  0.5000    1  1.10319E-06 kpt; spin; max resid(k); each band:
  8.04E-10 1.01E-09 6.12E-10 2.24E-10 3.37E-08 3.52E-08 8.25E-08 9.12E-08
  1.83E-08 1.83E-08 3.71E-08 1.64E-08 7.24E-08 1.10E-06
   0.3333  0.0000  0.5000    1  1.51867E-07 kpt; spin; max resid(k); each band:
  5.93E-10 1.25E-09 7.59E-10 3.61E-10 2.92E-08 2.75E-08 3.94E-08 3.91E-08
  4.67E-08 5.40E-08 1.11E-08 4.99E-08 4.14E-08 1.52E-07
   0.5000  0.0000  0.5000    1  5.43499E-07 kpt; spin; max resid(k); each band:
  4.83E-10 1.58E-09 6.39E-10 3.92E-10 2.41E-08 2.39E-08 2.48E-08 1.36E-08
  5.01E-08 6.26E-08 1.04E-08 5.78E-08 5.26E-09 5.43E-07
   0.0000  0.1667  0.5000    1  1.66556E-06 kpt; spin; max resid(k); each band:
  8.40E-10 9.94E-10 4.33E-10 2.73E-10 3.36E-08 3.52E-08 8.30E-08 8.96E-08
  1.82E-08 1.79E-08 3.69E-08 1.97E-08 7.27E-08 1.67E-06
   0.1667  0.1667  0.5000    1  2.20004E-07 kpt; spin; max resid(k); each band:
  6.34E-10 8.63E-10 9.03E-10 3.60E-10 3.04E-08 2.96E-08 7.09E-08 3.44E-08
  7.41E-08 3.80E-08 2.41E-08 4.12E-08 3.43E-08 2.20E-07
   0.3333  0.1667  0.5000    1  1.99080E-05 kpt; spin; max resid(k); each band:
  4.86E-10 1.32E-09 6.89E-10 5.21E-10 2.43E-08 2.52E-08 2.03E-08 1.61E-08
  5.67E-08 5.62E-08 4.70E-08 2.83E-08 5.38E-08 1.99E-05
   0.5000  0.1667  0.5000    1  3.08072E-07 kpt; spin; max resid(k); each band:
  5.43E-10 1.34E-09 6.92E-10 5.05E-10 2.44E-08 2.54E-08 1.97E-08 1.57E-08
  5.69E-08 5.77E-08 4.54E-08 2.78E-08 5.36E-08 3.08E-07
  -0.3333  0.1667  0.5000    1  1.83983E-07 kpt; spin; max resid(k); each band:
  7.41E-10 8.76E-10 9.50E-10 3.20E-10 3.05E-08 2.97E-08 6.98E-08 3.39E-08
  7.48E-08 3.76E-08 2.58E-08 4.18E-08 3.24E-08 1.84E-07
  -0.1667  0.1667  0.5000    1  8.87903E-07 kpt; spin; max resid(k); each band:
  8.41E-10 1.01E-09 4.96E-10 2.41E-10 3.37E-08 3.53E-08 8.22E-08 9.19E-08
  1.81E-08 1.68E-08 3.78E-08 1.85E-08 7.23E-08 8.88E-07
   0.0000  0.3333  0.5000    1  4.30711E-07 kpt; spin; max resid(k); each band:
  5.95E-10 1.06E-09 7.43E-10 4.19E-10 2.91E-08 2.73E-08 3.95E-08 3.85E-08
  4.74E-08 5.40E-08 1.34E-08 5.06E-08 2.06E-08 4.31E-07
   0.1667  0.3333  0.5000    1  3.88555E-07 kpt; spin; max resid(k); each band:
  4.29E-10 1.15E-09 6.83E-10 5.36E-10 2.41E-08 2.52E-08 1.95E-08 1.57E-08
  5.84E-08 5.72E-08 4.65E-08 2.78E-08 4.37E-08 3.89E-07
   0.3333  0.3333  0.5000    1  6.04643E-05 kpt; spin; max resid(k); each band:
  4.58E-10 1.23E-09 7.30E-10 6.69E-10 2.27E-08 1.96E-08 2.31E-08 9.60E-09
  1.50E-08 6.70E-08 2.35E-09 7.39E-08 1.95E-08 6.05E-05
   0.5000  0.3333  0.5000    1  1.31931E-05 kpt; spin; max resid(k); each band:
  5.75E-10 1.26E-09 6.96E-10 4.85E-10 2.45E-08 2.55E-08 2.00E-08 1.56E-08
  5.61E-08 5.74E-08 4.61E-08 2.80E-08 4.79E-08 1.32E-05
  -0.3333  0.3333  0.5000    1  3.51646E-06 kpt; spin; max resid(k); each band:
  6.76E-10 1.16E-09 7.67E-10 3.67E-10 2.92E-08 2.76E-08 3.92E-08 3.94E-08
  4.65E-08 5.48E-08 1.06E-08 4.96E-08 2.08E-08 3.52E-06
  -0.1667  0.3333  0.5000    1  2.05688E-07 kpt; spin; max resid(k); each band:
  7.03E-10 8.69E-10 9.05E-10 4.88E-10 3.04E-08 2.96E-08 7.05E-08 3.44E-08
  7.43E-08 3.78E-08 2.56E-08 4.26E-08 3.30E-08 2.06E-07
   0.0000  0.5000  0.5000    1  7.31910E-06 kpt; spin; max resid(k); each band:
  3.89E-10 1.38E-09 6.23E-10 4.48E-10 2.39E-08 2.37E-08 2.42E-08 1.34E-08
  5.18E-08 6.16E-08 1.28E-08 5.90E-08 2.47E-09 7.32E-06
   0.1667  0.5000  0.5000    1  1.36886E-05 kpt; spin; max resid(k); each band:
  4.75E-10 1.17E-09 6.87E-10 6.03E-10 2.42E-08 2.53E-08 1.92E-08 1.55E-08
  5.84E-08 5.77E-08 4.59E-08 2.82E-08 4.37E-08 1.37E-05
   0.3333  0.5000  0.5000    1  2.51063E-06 kpt; spin; max resid(k); each band:
  5.67E-10 1.26E-09 6.97E-10 5.66E-10 2.44E-08 2.53E-08 1.97E-08 1.58E-08
  5.65E-08 5.63E-08 4.71E-08 2.82E-08 4.51E-08 2.51E-06
   0.5000  0.5000  0.5000    1  4.35794E-05 kpt; spin; max resid(k); each band:
  6.13E-10 1.51E-09 6.48E-10 3.97E-10 2.43E-08 2.39E-08 2.48E-08 1.41E-08
  4.91E-08 6.34E-08 1.14E-08 5.66E-08 3.20E-09 4.36E-05
 
   outwf: writing wavefunctions to: mos2o_DS1_WFK with iomode: IO_MODE_FORTRAN_MASTER
 WFK output , wall:  0.10 [s] , cpu:  0.02 [s] <<< TIME
 prteigrs : about to open file mos2o_DS1_EIG
 Fermi (or HOMO) energy (hartree) =  -0.05732   Average Vxc (hartree)=  -0.15543
 Eigenvalues (hartree) for nkpt=  20  k points:
 kpt#   1, nband= 14, wtk=  0.02778, kpt=  0.0000  0.0000  0.5000 (reduced coord)
  -2.24731   -1.38165   -1.37150   -1.37150   -0.55415   -0.53241   -0.24373   -0.14887
  -0.11311   -0.11310   -0.09644   -0.07628   -0.07628    0.02810
 kpt#   2, nband= 14, wtk=  0.05556, kpt=  0.1667  0.0000  0.5000 (reduced coord)
  -2.24538   -1.38107   -1.37472   -1.37226   -0.54013   -0.52291   -0.22636   -0.16199
  -0.14567   -0.09849   -0.09830   -0.09627   -0.09406   -0.00605
 kpt#   3, nband= 14, wtk=  0.05556, kpt=  0.3333  0.0000  0.5000 (reduced coord)
  -2.24191   -1.38112   -1.37997   -1.37379   -0.50646   -0.50019   -0.21987   -0.20181
  -0.18774   -0.13849   -0.12521   -0.10198   -0.07475    0.00072
 kpt#   4, nband= 14, wtk=  0.02778, kpt=  0.5000  0.0000  0.5000 (reduced coord)
  -2.24025   -1.38431   -1.37942   -1.37457   -0.48571   -0.48441   -0.25086   -0.23134
  -0.19154   -0.14819   -0.13631   -0.09136   -0.07050    0.03179
 kpt#   5, nband= 14, wtk=  0.05556, kpt=  0.0000  0.1667  0.5000 (reduced coord)
  -2.24538   -1.38107   -1.37472   -1.37226   -0.54013   -0.52291   -0.22636   -0.16199
  -0.14567   -0.09849   -0.09830   -0.09627   -0.09406   -0.00605
 kpt#   6, nband= 14, wtk=  0.05556, kpt=  0.1667  0.1667  0.5000 (reduced coord)
  -2.24307   -1.38025   -1.37893   -1.37403   -0.51621   -0.50637   -0.20749   -0.17919
  -0.17677   -0.15847   -0.11169   -0.10273   -0.08028   -0.02225
 kpt#   7, nband= 14, wtk=  0.05556, kpt=  0.3333  0.1667  0.5000 (reduced coord)
  -2.24020   -1.38268   -1.37943   -1.37623   -0.48582   -0.48561   -0.23116   -0.21986
  -0.18327   -0.16568   -0.13440   -0.13264   -0.07103    0.00589
 kpt#   8, nband= 14, wtk=  0.05556, kpt=  0.5000  0.1667  0.5000 (reduced coord)
  -2.24020   -1.38268   -1.37943   -1.37623   -0.48582   -0.48561   -0.23116   -0.21986
  -0.18327   -0.16568   -0.13441   -0.13264   -0.07103    0.00575
 kpt#   9, nband= 14, wtk=  0.05556, kpt= -0.3333  0.1667  0.5000 (reduced coord)
  -2.24307   -1.38025   -1.37893   -1.37404   -0.51621   -0.50637   -0.20749   -0.17919
  -0.17677   -0.15847   -0.11169   -0.10274   -0.08029   -0.02225
 kpt#  10, nband= 14, wtk=  0.05556, kpt= -0.1667  0.1667  0.5000 (reduced coord)
  -2.24538   -1.38107   -1.37471   -1.37226   -0.54013   -0.52291   -0.22636   -0.16199
  -0.14567   -0.09849   -0.09830   -0.09627   -0.09406   -0.00605
 kpt#  11, nband= 14, wtk=  0.05556, kpt=  0.0000  0.3333  0.5000 (reduced coord)
  -2.24191   -1.38112   -1.37997   -1.37379   -0.50646   -0.50019   -0.21987   -0.20181
  -0.18774   -0.13849   -0.12521   -0.10198   -0.07475    0.00072
 kpt#  12, nband= 14, wtk=  0.05556, kpt=  0.1667  0.3333  0.5000 (reduced coord)
  -2.24020   -1.38268   -1.37943   -1.37623   -0.48582   -0.48561   -0.23116   -0.21986
  -0.18327   -0.16568   -0.13440   -0.13264   -0.07103    0.00575
 kpt#  13, nband= 14, wtk=  0.05556, kpt=  0.3333  0.3333  0.5000 (reduced coord)
  -2.23480   -1.38073   -1.38012   -1.37914   -0.47746   -0.47384   -0.22834   -0.20986
  -0.19262   -0.17293   -0.16793   -0.15337   -0.05732    0.01398
 kpt#  14, nband= 14, wtk=  0.05556, kpt=  0.5000  0.3333  0.5000 (reduced coord)
  -2.24020   -1.38268   -1.37943   -1.37623   -0.48582   -0.48561   -0.23116   -0.21986
  -0.18327   -0.16568   -0.13441   -0.13264   -0.07103    0.00579
 kpt#  15, nband= 14, wtk=  0.05556, kpt= -0.3333  0.3333  0.5000 (reduced coord)
  -2.24191   -1.38112   -1.37997   -1.37379   -0.50646   -0.50019   -0.21987   -0.20181
  -0.18774   -0.13849   -0.12521   -0.10198   -0.07475    0.00073
 kpt#  16, nband= 14, wtk=  0.05556, kpt= -0.1667  0.3333  0.5000 (reduced coord)
  -2.24307   -1.38025   -1.37893   -1.37403   -0.51621   -0.50637   -0.20749   -0.17919
  -0.17677   -0.15847   -0.11169   -0.10273   -0.08028   -0.02225
 kpt#  17, nband= 14, wtk=  0.02778, kpt=  0.0000  0.5000  0.5000 (reduced coord)
  -2.24025   -1.38431   -1.37942   -1.37456   -0.48571   -0.48441   -0.25086   -0.23133
  -0.19154   -0.14819   -0.13631   -0.09136   -0.07050    0.03183
 kpt#  18, nband= 14, wtk=  0.05556, kpt=  0.1667  0.5000  0.5000 (reduced coord)
  -2.24020   -1.38268   -1.37943   -1.37623   -0.48582   -0.48561   -0.23116   -0.21986
  -0.18327   -0.16568   -0.13440   -0.13264   -0.07103    0.00579
 kpt#  19, nband= 14, wtk=  0.05556, kpt=  0.3333  0.5000  0.5000 (reduced coord)
  -2.24020   -1.38268   -1.37943   -1.37623   -0.48582   -0.48561   -0.23116   -0.21986
  -0.18327   -0.16568   -0.13440   -0.13264   -0.07103    0.00577
 kpt#  20, nband= 14, wtk=  0.02778, kpt=  0.5000  0.5000  0.5000 (reduced coord)
  -2.24025   -1.38430   -1.37942   -1.37457   -0.48571   -0.48441   -0.25086   -0.23133
  -0.19154   -0.14819   -0.13631   -0.09136   -0.07050    0.03202
 Total charge density [el/Bohr^3]
)     Maximum=    8.2283E-01  at reduced coord.    0.2500    0.5000    0.0000
)Next maximum=    8.2283E-01  at reduced coord.    0.5000    0.7500    0.0000
)     Minimum=    1.2182E-07  at reduced coord.    0.0000    0.0000    0.5000
)Next minimum=    1.3768E-07  at reduced coord.    0.9000    0.1000    0.5000
   Integrated=    2.6000E+01
 
 Cartesian components of stress tensor (hartree/bohr^3)
  sigma(1 1)=  7.92501464E-04  sigma(3 2)=  2.48297723E-08
  sigma(2 2)=  7.92398419E-04  sigma(3 1)= -3.73240208E-08
  sigma(3 3)=  1.11238131E-03  sigma(2 1)=  3.68943221E-08
 
-Cartesian components of stress tensor (GPa)         [Pressure= -2.6452E+01 GPa]
- sigma(1 1)=  2.33161941E+01  sigma(3 2)=  7.30516999E-04
- sigma(2 2)=  2.33131624E+01  sigma(3 1)= -1.09811042E-03
- sigma(3 3)=  3.27273824E+01  sigma(2 1)=  1.08546825E-03
 dataset: 1 , wall: 22.16 [s] , cpu: 16.33 [s] <<< TIME
 
================================================================================
== DATASET  2 ==================================================================
-   mpi_nproc: 1, omp_nthreads: -1 (-1 if OMP is not activated)
 
 
--- !COMMENT
src_file: m_xgScalapack.F90
src_line: 235
message: |
    xgScalapack in auto mode
...
 
 mkfilename : getden/=0, take file _DEN from output of DATASET   1.
 
 
 getdim_nloc: deduce lmnmax  =  18, lnmax  =   6,
                      lmnmaxso=  18, lnmaxso=   6.
 Exchange-correlation functional for the present dataset will be:
  GGA: Perdew-Burke-Ernzerhof functional - ixc=11
 Citation for XC functional:
  J.P.Perdew, K.Burke, M.Ernzerhof, PRL 77, 3865 (1996)
 
 Unit cell volume ucvol=  1.1597873E+03 bohr^3
 Angles (23,13,12)=  9.00000000E+01  9.00000000E+01  1.20000000E+02 degrees
 
 getcut: wavevector=  0.0000  0.0000  0.0000  ngfft=  20  20 120
         ecut(hartree)=     12.000   => boxcut(ratio)=   2.03609
 wfconv:     4 bands initialized randomly with npw=  1164, for ikpt=     1
 wfconv:     4 bands initialized randomly with npw=  2319, for ikpt=     2
 wfconv:     4 bands initialized randomly with npw=  2319, for ikpt=     3
 wfconv:     4 bands initialized randomly with npw=  2317, for ikpt=     4
 wfconv:     4 bands initialized randomly with npw=  2321, for ikpt=     5
 wfconv:     4 bands initialized randomly with npw=  2301, for ikpt=     6
 wfconv:     4 bands initialized randomly with npw=  2301, for ikpt=     7
 wfconv:     4 bands initialized randomly with npw=  2305, for ikpt=     8
 wfconv:     4 bands initialized randomly with npw=  2275, for ikpt=     9
 wfconv:     4 bands initialized randomly with npw=  2273, for ikpt=    10
 wfconv:     4 bands initialized randomly with npw=  2256, for ikpt=    11
 wfconv:     4 bands initialized randomly with npw=  2273, for ikpt=    12
 wfconv:     4 bands initialized randomly with npw=  2275, for ikpt=    13
 wfconv:     4 bands initialized randomly with npw=  2305, for ikpt=    14
 wfconv:     4 bands initialized randomly with npw=  2301, for ikpt=    15
 wfconv:     4 bands initialized randomly with npw=  2301, for ikpt=    16
 wfconv:     4 bands initialized randomly with npw=  2321, for ikpt=    17
 wfconv:     4 bands initialized randomly with npw=  2317, for ikpt=    18
 wfconv:     4 bands initialized randomly with npw=  2319, for ikpt=    19
 wfconv:     4 bands initialized randomly with npw=  2319, for ikpt=    20
 wfconv:     4 bands initialized randomly with npw=  1164, for ikpt=    21
 About to read data(r) from: mos2o_DS1_DEN
 
================================================================================
 
          - hdr_check: checking restart file header for consistency -
 
 
          current calculation                           restart file
          -------------------                           ------------
 
  calculation expects a density             |  input file contains a density
. ABINIT  code version 9.10.3               |  ABINIT  code version 9.10.3
. date 20250507 bantot       84 natom    3  |  date 20250507 bantot      280 natom    3
  nkpt      21 nsym  1 ngfft  20,  20, 120  |  nkpt      20 nsym  1 ngfft  20,  20, 120
  ntypat  2 ecut_eff  12.0000000            |  ntypat  2 ecut_eff  12.0000000
  usepaw  0                                 |  usepaw  0
  usewvl  0                                 |  usewvl  0
  rprimd:                                   |  rprimd:
     2.9763187  -5.1551351   0.0000000      |     2.9763187  -5.1551351   0.0000000
     2.9763187   5.1551351   0.0000000      |     2.9763187   5.1551351   0.0000000
     0.0000000   0.0000000  37.7945227      |     0.0000000   0.0000000  37.7945227
  symafm:                                   |  symafm:
    1                                       |    1
  symrel:                                   |  symrel:
    1  0  0  0  1  0  0  0  1               |    1  0  0  0  1  0  0  0  1
  typat:                                    |  typat:
    1  2  2                                 |    1  2  2
  so_psp  :                                 |  so_psp  :
    1  1                                    |    1  1
 
--- !COMMENT
src_file: m_hdr.F90
src_line: 4232
message: |
    input kptrlatt = 0 0 0 0 0 0 0 0 0  /= disk file kptrlatt = 6 0 0 0 6 0 0 0 1
...
 
 
--- !COMMENT
src_file: m_hdr.F90
src_line: 4235
message: |
    input kptopt = -2  /= disk file kptopt = 1
...
 
 
--- !WARNING
src_file: m_hdr.F90
src_line: 4256
message: |
    input ival=0 not equal disk file ival=13
...
 
  tnons:                                    |  tnons:
     0.0000000   0.0000000   0.0000000      |     0.0000000   0.0000000   0.0000000
   znucl:                                   |   znucl:
   42.00 16.00                              |       42.00 16.00
  pseudopotential atom type  1:             |  pseudopotential atom type  1:
  pspso   0 pspxc  11                       |  pspso   0 pspxc  11
  pspdat   170510 pspcod    8 zion  14.0    |  pspdat   170510 pspcod    8 zion  14.0
  pseudopotential atom type  2:             |  pseudopotential atom type  2:
  pspso   0 pspxc  11                       |  pspso   0 pspxc  11
  pspdat   220131 pspcod    8 zion   6.0    |  pspdat   220131 pspcod    8 zion   6.0
  xred:                                     |  xred:
     0.3333333   0.6666667   0.0000000      |     0.3333333   0.6666667   0.0000000
     0.6666667   0.3333333  -0.0919442      |     0.6666667   0.3333333  -0.0919442
     0.6666667   0.3333333   0.0919442      |     0.6666667   0.3333333   0.0919442
 hdr_check:  Density/Potential file is OK for restart of calculation
================================================================================
 read_rhor , wall:  0.01 [s] , cpu:  0.00 [s] <<< TIME
 
================================================================================
 
 getcut: wavevector=  0.0000  0.0000  0.0000  ngfft=  20  20 120
         ecut(hartree)=     12.000   => boxcut(ratio)=   2.03609
 Max number of non-self-consistent loops: 10
 k-point: [ 1 / 21 ], spin: 1
   Max resid = 2.29256E+00  (exclude nbdbuf bands). One NSCF iteration cpu-time:  0.02 [s] , wall-time:  0.35 [s]
   Max resid = 3.47689E-01  (exclude nbdbuf bands). One NSCF iteration cpu-time:  0.02 [s] , wall-time:  0.02 [s]
   Max resid = 5.05619E-04  (exclude nbdbuf bands). One NSCF iteration cpu-time:  0.01 [s] , wall-time:  0.01 [s]
   Printing residuals every mod(20) iterations...
   NSCF loop completed after 7 iterations
 
 -------------------------------------------------------------------------------------------------
 Ekinetic   = :     0.000000E+00 Ha ,    0.000000E+00 eV
 Evext_l    = :     0.000000E+00 Ha ,    0.000000E+00 eV
 Evext_nl   = :     0.000000E+00 Ha ,    0.000000E+00 eV
 Epsp_core  = :     7.631172E-01 Ha ,    2.076547E+01 eV
 Ehartree   = :     0.000000E+00 Ha ,    0.000000E+00 eV
 Exc_ks     = :    -1.636614E+01 Ha ,   -4.453453E+02 eV
 Enn        = :     1.895732E+02 Ha ,    5.158549E+03 eV
 -------------------------------------------------------------------------------------------------
 Etot       = :     1.739702E+02 Ha ,    4.733969E+03 eV
 -------------------------------------------------------------------------------------------------
 
 fftdatar_write: About to write data to: mos2o_DS2_DEN with iomode: IO_MODE_FORTRAN
 IO operation , wall:  0.04 [s] , cpu:  0.00 [s] <<< TIME
- Creating HDf5 file with MPI-IO support: mos2o_DS2_GSR.nc
 Integrated electronic density in atomic spheres:
 ------------------------------------------------
 Atom  Sphere_radius  Integrated_density
    1        2.00000         10.37238136
    2        2.00000          3.83131304
    3        2.00000          3.83137151
================================================================================
 
 ----iterations are completed or convergence reached----
 
 
 === Gap info ===
Not enough states to calculate the band gap.
 Mean square residual over all n,k,spin=   50.036E-14; max=  95.162E-14
   0.0000  0.0000  0.0000    1  7.11342E-13 kpt; spin; max resid(k); each band:
  6.26E-13 6.05E-13 7.11E-13 6.42E-13
   0.0333  0.0333  0.0000    1  7.93273E-13 kpt; spin; max resid(k); each band:
  2.84E-13 2.51E-13 2.92E-13 7.93E-13
   0.0667  0.0667  0.0000    1  4.21256E-13 kpt; spin; max resid(k); each band:
  3.15E-13 3.13E-13 4.21E-13 2.64E-13
   0.1000  0.1000  0.0000    1  8.80550E-13 kpt; spin; max resid(k); each band:
  5.12E-13 8.81E-13 5.91E-13 5.86E-13
   0.1333  0.1333  0.0000    1  9.40812E-13 kpt; spin; max resid(k); each band:
  3.87E-13 5.81E-13 9.41E-13 3.72E-13
   0.1667  0.1667  0.0000    1  5.03331E-13 kpt; spin; max resid(k); each band:
  5.03E-13 2.31E-13 5.03E-13 4.60E-13
   0.2000  0.2000  0.0000    1  5.50059E-13 kpt; spin; max resid(k); each band:
  4.99E-13 5.10E-13 5.50E-13 5.19E-13
   0.2333  0.2333  0.0000    1  9.05265E-13 kpt; spin; max resid(k); each band:
  9.05E-13 6.45E-13 2.29E-13 4.81E-13
   0.2667  0.2667  0.0000    1  6.28902E-13 kpt; spin; max resid(k); each band:
  6.29E-13 3.20E-13 5.72E-13 5.17E-13
   0.3000  0.3000  0.0000    1  9.81890E-13 kpt; spin; max resid(k); each band:
  3.77E-13 4.09E-13 3.79E-13 9.82E-13
   0.3333  0.3333  0.0000    1  9.51625E-13 kpt; spin; max resid(k); each band:
  4.99E-13 9.52E-13 7.46E-13 2.14E-13
   0.3000  0.3000  0.0000    1  9.81890E-13 kpt; spin; max resid(k); each band:
  3.77E-13 4.09E-13 3.79E-13 9.82E-13
   0.2667  0.2667  0.0000    1  6.28902E-13 kpt; spin; max resid(k); each band:
  6.29E-13 3.20E-13 5.72E-13 5.17E-13
   0.2333  0.2333  0.0000    1  9.05265E-13 kpt; spin; max resid(k); each band:
  9.05E-13 6.45E-13 2.29E-13 4.81E-13
   0.2000  0.2000  0.0000    1  5.50059E-13 kpt; spin; max resid(k); each band:
  4.99E-13 5.10E-13 5.50E-13 5.19E-13
   0.1667  0.1667  0.0000    1  5.03331E-13 kpt; spin; max resid(k); each band:
  5.03E-13 2.31E-13 5.03E-13 4.60E-13
   0.1333  0.1333  0.0000    1  9.40812E-13 kpt; spin; max resid(k); each band:
  3.87E-13 5.81E-13 9.41E-13 3.72E-13
   0.1000  0.1000  0.0000    1  8.80550E-13 kpt; spin; max resid(k); each band:
  5.12E-13 8.81E-13 5.91E-13 5.86E-13
   0.0667  0.0667  0.0000    1  4.21256E-13 kpt; spin; max resid(k); each band:
  3.15E-13 3.13E-13 4.21E-13 2.64E-13
   0.0333  0.0333  0.0000    1  7.93273E-13 kpt; spin; max resid(k); each band:
  2.84E-13 2.51E-13 2.92E-13 7.93E-13
   0.0000  0.0000  0.0000    1  7.11342E-13 kpt; spin; max resid(k); each band:
  6.26E-13 6.05E-13 7.11E-13 6.42E-13
 
   outwf: writing wavefunctions to: mos2o_DS2_WFK with iomode: IO_MODE_FORTRAN_MASTER
 WFK output , wall:  0.09 [s] , cpu:  0.01 [s] <<< TIME
 prteigrs : about to open file mos2o_DS2_EIG
 Eigenvalues (   eV  ) for nkpt=  21  k points:
 kpt#   1, nband=  4, wtk=  1.00000, kpt=  0.0000  0.0000  0.0000 (reduced coord)
 -60.86925  -37.34772  -37.06867  -37.06855
 kpt#   2, nband=  4, wtk=  1.00000, kpt=  0.0333  0.0333  0.0000 (reduced coord)
 -60.84779  -37.34564  -37.07969  -37.07119
 kpt#   3, nband=  4, wtk=  1.00000, kpt=  0.0667  0.0667  0.0000 (reduced coord)
 -60.84514  -37.34002  -37.11211  -37.07942
 kpt#   4, nband=  4, wtk=  1.00000, kpt=  0.1000  0.1000  0.0000 (reduced coord)
 -60.83052  -37.33168  -37.16008  -37.09317
 kpt#   5, nband=  4, wtk=  1.00000, kpt=  0.1333  0.1333  0.0000 (reduced coord)
 -60.83112  -37.32152  -37.21582  -37.11298
 kpt#   6, nband=  4, wtk=  1.00000, kpt=  0.1667  0.1667  0.0000 (reduced coord)
 -60.75904  -37.31032  -37.27059  -37.13733
 kpt#   7, nband=  4, wtk=  1.00000, kpt=  0.2000  0.2000  0.0000 (reduced coord)
 -60.74217  -37.31616  -37.30009  -37.16720
 kpt#   8, nband=  4, wtk=  1.00000, kpt=  0.2333  0.2333  0.0000 (reduced coord)
 -60.74085  -37.34554  -37.29166  -37.20084
 kpt#   9, nband=  4, wtk=  1.00000, kpt=  0.2667  0.2667  0.0000 (reduced coord)
 -60.64986  -37.35362  -37.28509  -37.23696
 kpt#  10, nband=  4, wtk=  1.00000, kpt=  0.3000  0.3000  0.0000 (reduced coord)
 -60.64271  -37.34223  -37.28184  -37.27418
 kpt#  11, nband=  4, wtk=  1.00000, kpt=  0.3333  0.3333  0.0000 (reduced coord)
 -60.59435  -37.32011  -37.30338  -37.28096
 kpt#  12, nband=  4, wtk=  1.00000, kpt=  0.3000  0.3000  0.0000 (reduced coord)
 -60.64271  -37.34223  -37.28184  -37.27418
 kpt#  13, nband=  4, wtk=  1.00000, kpt=  0.2667  0.2667  0.0000 (reduced coord)
 -60.64986  -37.35362  -37.28509  -37.23696
 kpt#  14, nband=  4, wtk=  1.00000, kpt=  0.2333  0.2333  0.0000 (reduced coord)
 -60.74085  -37.34554  -37.29166  -37.20084
 kpt#  15, nband=  4, wtk=  1.00000, kpt=  0.2000  0.2000  0.0000 (reduced coord)
 -60.74217  -37.31616  -37.30009  -37.16720
 kpt#  16, nband=  4, wtk=  1.00000, kpt=  0.1667  0.1667  0.0000 (reduced coord)
 -60.75904  -37.31032  -37.27059  -37.13733
 kpt#  17, nband=  4, wtk=  1.00000, kpt=  0.1333  0.1333  0.0000 (reduced coord)
 -60.83112  -37.32152  -37.21582  -37.11298
 kpt#  18, nband=  4, wtk=  1.00000, kpt=  0.1000  0.1000  0.0000 (reduced coord)
 -60.83052  -37.33168  -37.16008  -37.09317
 kpt#  19, nband=  4, wtk=  1.00000, kpt=  0.0667  0.0667  0.0000 (reduced coord)
 -60.84514  -37.34002  -37.11211  -37.07942
 kpt#  20, nband=  4, wtk=  1.00000, kpt=  0.0333  0.0333  0.0000 (reduced coord)
 -60.84779  -37.34564  -37.07969  -37.07119
 kpt#  21, nband=  4, wtk=  1.00000, kpt=  0.0000  0.0000  0.0000 (reduced coord)
 -60.86925  -37.34772  -37.06867  -37.06855
 Total charge density [el/Bohr^3]
)     Maximum=    8.2283E-01  at reduced coord.    0.2500    0.5000    0.0000
)Next maximum=    8.2283E-01  at reduced coord.    0.5000    0.7500    0.0000
)     Minimum=    1.2182E-07  at reduced coord.    0.0000    0.0000    0.5000
)Next minimum=    1.3768E-07  at reduced coord.    0.9000    0.1000    0.5000
   Integrated=    2.6000E+01
 dataset: 2 , wall:  5.09 [s] , cpu:  4.13 [s] <<< TIME
 
== END DATASET(S) ==============================================================
================================================================================
  
 -outvars: echo values of variables after computation  --------
 
 These variables are accessible in NetCDF format (mos2o_OUT.nc)

            acell      5.9526373186E+00  5.9526373186E+00  3.7794522658E+01 Bohr
              amu      9.59400000E+01  3.20660000E+01
      chksymbreak           0
             ecut      1.20000000E+01 Hartree
           enunit1          0
           enunit2          1
           etotal1    -9.1852535751E+01
            fcart1    -2.6875204325E-07  1.6429477868E-06 -7.3268886865E-05
                      -6.5770170021E-07 -2.8166101117E-06  6.7808099205E-02
                       9.2645374346E-07  1.1736623250E-06 -6.7734830318E-02
-          fftalg         512
           getden1          0
           getden2         -1
             iscf1          7
             iscf2         -2
           istwfk1       4    0    0    5    0    0    0    0    0    0
                         0    0    0    0    0    0    8    0    0    9
           istwfk2       2    0    0    0    0    0    0    0    0    0
                         0    0    0    0    0    0    0    0    0    0
                         2
              ixc          11
           jdtset        1    2
              kpt1     0.00000000E+00  0.00000000E+00  5.00000000E-01
                       1.66666667E-01  0.00000000E+00  5.00000000E-01
                       3.33333333E-01  0.00000000E+00  5.00000000E-01
                       5.00000000E-01  0.00000000E+00  5.00000000E-01
                       0.00000000E+00  1.66666667E-01  5.00000000E-01
                       1.66666667E-01  1.66666667E-01  5.00000000E-01
                       3.33333333E-01  1.66666667E-01  5.00000000E-01
                       5.00000000E-01  1.66666667E-01  5.00000000E-01
                      -3.33333333E-01  1.66666667E-01  5.00000000E-01
                      -1.66666667E-01  1.66666667E-01  5.00000000E-01
                       0.00000000E+00  3.33333333E-01  5.00000000E-01
                       1.66666667E-01  3.33333333E-01  5.00000000E-01
                       3.33333333E-01  3.33333333E-01  5.00000000E-01
                       5.00000000E-01  3.33333333E-01  5.00000000E-01
                      -3.33333333E-01  3.33333333E-01  5.00000000E-01
                      -1.66666667E-01  3.33333333E-01  5.00000000E-01
                       0.00000000E+00  5.00000000E-01  5.00000000E-01
                       1.66666667E-01  5.00000000E-01  5.00000000E-01
                       3.33333333E-01  5.00000000E-01  5.00000000E-01
                       5.00000000E-01  5.00000000E-01  5.00000000E-01
              kpt2     0.00000000E+00  0.00000000E+00  0.00000000E+00
                       3.33333333E-02  3.33333333E-02  0.00000000E+00
                       6.66666667E-02  6.66666667E-02  0.00000000E+00
                       1.00000000E-01  1.00000000E-01  0.00000000E+00
                       1.33333333E-01  1.33333333E-01  0.00000000E+00
                       1.66666667E-01  1.66666667E-01  0.00000000E+00
                       2.00000000E-01  2.00000000E-01  0.00000000E+00
                       2.33333333E-01  2.33333333E-01  0.00000000E+00
                       2.66666667E-01  2.66666667E-01  0.00000000E+00
                       3.00000000E-01  3.00000000E-01  0.00000000E+00
                       3.33333333E-01  3.33333333E-01  0.00000000E+00
                       3.00000000E-01  3.00000000E-01  0.00000000E+00
                       2.66666667E-01  2.66666667E-01  0.00000000E+00
                       2.33333333E-01  2.33333333E-01  0.00000000E+00
                       2.00000000E-01  2.00000000E-01  0.00000000E+00
                       1.66666667E-01  1.66666667E-01  0.00000000E+00
                       1.33333333E-01  1.33333333E-01  0.00000000E+00
                       1.00000000E-01  1.00000000E-01  0.00000000E+00
                       6.66666667E-02  6.66666667E-02  0.00000000E+00
                       3.33333333E-02  3.33333333E-02  0.00000000E+00
                       0.00000000E+00  0.00000000E+00  0.00000000E+00
           kptopt1          1
           kptopt2         -2
         kptrlatt        6    0    0      0    6    0      0    0    1
          kptrlen1     3.57158239E+01
          kptrlen2     3.00000000E+01
P           mkmem1         20
P           mkmem2         21
            natom           3
            nband1         14
            nband2          4
           nbdbuf1          0
           nbdbuf2          2
           ndtset           2
           ndivsm1          0
           ndivsm2         10
            ngfft          20      20     120
             nkpt1         20
             nkpt2         21
            nstep          10
             nsym           1
           ntypat           2
              occ      2.000000  2.000000  2.000000  2.000000  2.000000  2.000000
                       2.000000  2.000000  2.000000  2.000000  2.000000  2.000000
                       2.000000  0.000000
            rprim      5.0000000000E-01 -8.6602540378E-01  0.0000000000E+00
                       5.0000000000E-01  8.6602540378E-01  0.0000000000E+00
                       0.0000000000E+00  0.0000000000E+00  1.0000000000E+00
           shiftk1     0.00000000E+00  0.00000000E+00  5.00000000E-01
           shiftk2     5.00000000E-01  5.00000000E-01  5.00000000E-01
          spgroup           1
           strten1     7.9250146425E-04  7.9239841874E-04  1.1123813054E-03
                       2.4829772281E-08 -3.7324020753E-08  3.6894322083E-08
           toldfe1     1.00000000E-06 Hartree
           toldfe2     0.00000000E+00 Hartree
           tolwfr1     0.00000000E+00
           tolwfr2     1.00000000E-12
            typat      1  2  2
              wtk1       0.02778    0.05556    0.05556    0.02778    0.05556    0.05556
                         0.05556    0.05556    0.05556    0.05556    0.05556    0.05556
                         0.05556    0.05556    0.05556    0.05556    0.02778    0.05556
                         0.05556    0.02778
              wtk2       1.00000    1.00000    1.00000    1.00000    1.00000    1.00000
                         1.00000    1.00000    1.00000    1.00000    1.00000    1.00000
                         1.00000    1.00000    1.00000    1.00000    1.00000    1.00000
                         1.00000    1.00000    1.00000
           xangst      1.5750000000E+00  9.0932667397E-01  0.0000000000E+00
                       1.5750000000E+00 -9.0932667397E-01 -1.8388847000E+00
                       1.5750000000E+00 -9.0932667397E-01  1.8388847000E+00
            xcart      2.9763186593E+00  1.7183783791E+00  0.0000000000E+00
                       2.9763186593E+00 -1.7183783791E+00 -3.4749884730E+00
                       2.9763186593E+00 -1.7183783791E+00  3.4749884730E+00
             xred      3.3333333333E-01  6.6666666667E-01  0.0000000000E+00
                       6.6666666667E-01  3.3333333333E-01 -9.1944235000E-02
                       6.6666666667E-01  3.3333333333E-01  9.1944235000E-02
            znucl       42.00000   16.00000
 
================================================================================
  
 Proc.   0 individual time (sec): cpu=         20.9  wall=         33.4
 
 Calculation completed.
.Delivered   4 WARNINGs and  10 COMMENTs to log file.

--- !FinalSummary
program: abinit
version: 9.10.3
start_datetime: Wed May 07 05:52:02 2025
end_datetime: Wed May 07 05:52:35 2025
overall_cpu_time:          20.9
overall_wall_time:          33.4
exit_requested_by_user: no 
timelimit: 0
pseudos: 
    Mo  : 228091cb5782e08cb8d68936b3c7e57b
    S   : ee4b2e2802f5df21cf2ecc26b1029f69
usepaw: 0
mpi_procs: 1
omp_threads: 1
num_warnings: 4
num_comments: 10
...
