  ABINIT 9.10.3
  
-instrng: 42 lines of input have been read from file mos2_ecut.abi
 
 
--- !COMMENT
src_file: m_dtfil.F90
src_line: 1441
message: |
    Output file: mos2_ecut.abo already exists.
...
 
 
--- !COMMENT
src_file: m_dtfil.F90
src_line: 1465
message: |
    Renaming old: mos2_ecut.abo to: mos2_ecut.abo0008
...
 

.Version 9.10.3 of ABINIT 
.(MPI version, prepared for a x86_64_linux_intel2021.6 computer) 

.Copyright (C) 1998-2022 ABINIT group . 
 ABINIT comes with ABSOLUTELY NO WARRANTY.
 It is free software, and you are welcome to redistribute it
 under certain conditions (GNU General Public License,
 see ~abinit/COPYING or http://www.gnu.org/copyleft/gpl.txt).

 ABINIT is a project of the Universite Catholique de Louvain,
 Corning Inc. and other collaborators, see ~abinit/doc/developers/contributors.txt .
 Please read https://docs.abinit.org/theory/acknowledgments for suggested
 acknowledgments of the ABINIT effort.
 For more information, see https://www.abinit.org .

.Starting date : Wed  7 May 2025.
- ( at 06h45 )
  
 
 ++++++++++++++++++++++++++++++++++++++++++++++++++++++++++++++++++++++++++++++
 
 === Build Information === 
  Version       : 9.10.3
  Build target  : x86_64_linux_intel2021.6
  Build date    : 20240126
 
 === Compiler Suite === 
  C compiler       : intel2021.6
  C++ compiler     : gnu2021.6
  Fortran compiler : intel2021.6
  CFLAGS           : -g -O2
  CXXFLAGS         : -g -O2 -mtune=native -march=native
  FCFLAGS          : -g -extend-source -nofpscomp     -I/shared/ucl/apps/NetCDF/4.9.2-in ...
  FC_LDFLAGS       :   -static-intel -static-libgcc
 
 === Optimizations === 
  Debug level        : basic
  Optimization level : standard
  Architecture       : intel_xeon
 
 === Multicore === 
  Parallel build : /shared/ucl/apps/intel/2020/impi/2019.6.166/intel64
  Parallel I/O   : 
  openMP support : 
  GPU support    : 
 
 === Connectors / Fallbacks === 
  LINALG flavor  : mkl
  FFT flavor     : dfti
  HDF5           : yes
  NetCDF         : yes
  NetCDF Fortran : yes
  LibXC          : yes
  Wannier90      : no
 
 === Experimental features === 
  Exports             : 
  GW double-precision : 
 
 ++++++++++++++++++++++++++++++++++++++++++++++++++++++++++++++++++++++++++++++
 

 ++++++++++++++++++++++++++++++++++++++++++++++++++++++++++++++++++++++++++++++
 Default optimizations:
   -O3


 Optimizations for 43_ptgroups:
   -O0


 ++++++++++++++++++++++++++++++++++++++++++++++++++++++++++++++++++++++++++++++


 ++++++++++++++++++++++++++++++++++++++++++++++++++++++++++++++++++++++++++++++
 CPP options activated during the build:

                  CC_INTEL                   CXX_GNU                  FC_INTEL
 
                 HAVE_DFTI HAVE_FC_ALLOCATABLE_DT...             HAVE_FC_ASYNC
 
  HAVE_FC_COMMAND_ARGUMENT      HAVE_FC_COMMAND_LINE        HAVE_FC_CONTIGUOUS
 
           HAVE_FC_CPUTIME              HAVE_FC_EXIT             HAVE_FC_FLUSH
 
             HAVE_FC_GAMMA   HAVE_FC_IEEE_ARITHMETIC   HAVE_FC_IEEE_EXCEPTIONS
 
             HAVE_FC_IOMSG     HAVE_FC_ISO_C_BINDING  HAVE_FC_ISO_FORTRAN_2008
 
        HAVE_FC_LONG_LINES        HAVE_FC_MOVE_ALLOC  HAVE_FC_ON_THE_FLY_SHAPE
 
           HAVE_FC_PRIVATE         HAVE_FC_PROTECTED           HAVE_FC_SHIFTLR
 
         HAVE_FC_STREAM_IO                 HAVE_HDF5             HAVE_HDF5_MPI
 
        HAVE_LIBPAW_ABINIT      HAVE_LIBTETRA_ABINIT                HAVE_LIBXC
 
         HAVE_LINALG_AXPBY        HAVE_LINALG_GEMM3M         HAVE_LINALG_GEMMT
 
  HAVE_LINALG_MKL_IMATCOPY   HAVE_LINALG_MKL_OMATADD  HAVE_LINALG_MKL_OMATCOPY
 
   HAVE_LINALG_MKL_THREADS     HAVE_LINALG_SCALAPACK                  HAVE_MPI
 
                 HAVE_MPI2       HAVE_MPI_IALLGATHER       HAVE_MPI_IALLREDUCE
 
        HAVE_MPI_IALLTOALL       HAVE_MPI_IALLTOALLV           HAVE_MPI_IBCAST
 
         HAVE_MPI_IGATHERV        HAVE_MPI_INTEGER16               HAVE_MPI_IO
 
 HAVE_MPI_TYPE_CREATE_S...               HAVE_NETCDF       HAVE_NETCDF_FORTRAN
 
   HAVE_NETCDF_FORTRAN_MPI           HAVE_NETCDF_MPI             HAVE_OS_LINUX
 
         HAVE_TIMER_ABINIT                                                      
 ++++++++++++++++++++++++++++++++++++++++++++++++++++++++++++++++++++++++++++++

- input  file    -> mos2_ecut.abi
- output file    -> mos2_ecut.abo
- root for input  files -> mos2_ecuti
- root for output files -> mos2_ecuto
 
 Netcdf library supports MPI-IO
-instrng: 42 lines of input have been read from file mos2_ecut.abi
 
 For atom type 1, psp file is ./persudo/Mo.psp8
 For atom type 2, psp file is ./persudo/S.psp8
  read the values zionpsp= 14.0 , pspcod=   8 , lmax=   2
  read the values zionpsp=  6.0 , pspcod=   8 , lmax=   2
 
 inpspheads: deduce mpsang = 3, n1xccc = 2501.

======================================================= 
 invars1m : enter jdtset= 1
 
 symlatt: the Bravais lattice is hP (primitive hexagonal)
  xred   is defined in input file
 ingeo: takes atomic coordinates from input array xred
 
 symlatt: the Bravais lattice is hP (primitive hexagonal)
 
 symlatt: the Bravais lattice is hP (primitive hexagonal)
 
--- !COMMENT
src_file: m_symfind.F90
src_line: 995
message: |
    The Bravais lattice determined only from the primitive
    vectors, bravais(1)=  6, is more symmetric
    than the real one, iholohedry=  1, obtained by taking into
    account the atomic positions. Start deforming the primitive vector set.
...
 
 
 symlatt: the Bravais lattice is oC (one-face-centered orthorhombic)
 
--- !COMMENT
src_file: m_symfind.F90
src_line: 1004
message: |
    The Bravais lattice determined from modified primitive
    vectors, bravais(1)=  3, has a lower symmetry than before,
    but is still more symmetric than the real one, iholohedry=  1
    obtained by taking into account the atomic positions.
...
 
 
 symlatt: the Bravais lattice is aP (primitive triclinic)
 symspgr: spgroup=   1  P1   (=C1^1)

======================================================= 
 invars1m : enter jdtset= 2
 
 symlatt: the Bravais lattice is hP (primitive hexagonal)
  xred   is defined in input file
 ingeo: takes atomic coordinates from input array xred
 
 symlatt: the Bravais lattice is hP (primitive hexagonal)
 
 symlatt: the Bravais lattice is hP (primitive hexagonal)
 
--- !COMMENT
src_file: m_symfind.F90
src_line: 995
message: |
    The Bravais lattice determined only from the primitive
    vectors, bravais(1)=  6, is more symmetric
    than the real one, iholohedry=  1, obtained by taking into
    account the atomic positions. Start deforming the primitive vector set.
...
 
 
 symlatt: the Bravais lattice is oC (one-face-centered orthorhombic)
 
--- !COMMENT
src_file: m_symfind.F90
src_line: 1004
message: |
    The Bravais lattice determined from modified primitive
    vectors, bravais(1)=  3, has a lower symmetry than before,
    but is still more symmetric than the real one, iholohedry=  1
    obtained by taking into account the atomic positions.
...
 
 
 symlatt: the Bravais lattice is aP (primitive triclinic)
 symspgr: spgroup=   1  P1   (=C1^1)

======================================================= 
 invars1m : enter jdtset= 3
 
 symlatt: the Bravais lattice is hP (primitive hexagonal)
  xred   is defined in input file
 ingeo: takes atomic coordinates from input array xred
 
 symlatt: the Bravais lattice is hP (primitive hexagonal)
 
 symlatt: the Bravais lattice is hP (primitive hexagonal)
 
--- !COMMENT
src_file: m_symfind.F90
src_line: 995
message: |
    The Bravais lattice determined only from the primitive
    vectors, bravais(1)=  6, is more symmetric
    than the real one, iholohedry=  1, obtained by taking into
    account the atomic positions. Start deforming the primitive vector set.
...
 
 
 symlatt: the Bravais lattice is oC (one-face-centered orthorhombic)
 
--- !COMMENT
src_file: m_symfind.F90
src_line: 1004
message: |
    The Bravais lattice determined from modified primitive
    vectors, bravais(1)=  3, has a lower symmetry than before,
    but is still more symmetric than the real one, iholohedry=  1
    obtained by taking into account the atomic positions.
...
 
 
 symlatt: the Bravais lattice is aP (primitive triclinic)
 symspgr: spgroup=   1  P1   (=C1^1)

======================================================= 
 invars1m : enter jdtset= 4
 
 symlatt: the Bravais lattice is hP (primitive hexagonal)
  xred   is defined in input file
 ingeo: takes atomic coordinates from input array xred
 
 symlatt: the Bravais lattice is hP (primitive hexagonal)
 
 symlatt: the Bravais lattice is hP (primitive hexagonal)
 
--- !COMMENT
src_file: m_symfind.F90
src_line: 995
message: |
    The Bravais lattice determined only from the primitive
    vectors, bravais(1)=  6, is more symmetric
    than the real one, iholohedry=  1, obtained by taking into
    account the atomic positions. Start deforming the primitive vector set.
...
 
 
 symlatt: the Bravais lattice is oC (one-face-centered orthorhombic)
 
--- !COMMENT
src_file: m_symfind.F90
src_line: 1004
message: |
    The Bravais lattice determined from modified primitive
    vectors, bravais(1)=  3, has a lower symmetry than before,
    but is still more symmetric than the real one, iholohedry=  1
    obtained by taking into account the atomic positions.
...
 
 
 symlatt: the Bravais lattice is aP (primitive triclinic)
 symspgr: spgroup=   1  P1   (=C1^1)
 invars2: take the default value of fband=  1.25000000E-01
 invars2: take the default value of fband=  1.25000000E-01
 invars2: take the default value of fband=  1.25000000E-01
 invars2: take the default value of fband=  1.25000000E-01
 LMac pawujat is:            0
 LMac pawujat is:            0
 LMac pawujat is:            0
 LMac pawujat is:            0
 For input ecut=  5.000000E+00 best grid ngfft=      12      12      80
       max ecut=  5.013643E+00
 
 ==== FFT mesh ====
  FFT mesh divisions ........................    12   12   80
  Augmented FFT divisions ...................    13   13   80
  FFT algorithm .............................   512
  FFT cache size ............................    16
 getmpw: optimal value of mpw= 628
 For input ecut=  5.000000E+00 best grid ngfft=      12      12      80
       max ecut=  5.013643E+00
 
 ==== FFT mesh ====
  FFT mesh divisions ........................    12   12   80
  Augmented FFT divisions ...................    13   13   80
  FFT algorithm .............................   512
  FFT cache size ............................    16
 getmpw: optimal value of mpw= 628
 For input ecut=  5.000000E+00 best grid ngfft=      12      12      80
       max ecut=  5.013643E+00
 
 ==== FFT mesh ====
  FFT mesh divisions ........................    12   12   80
  Augmented FFT divisions ...................    13   13   80
  FFT algorithm .............................   512
  FFT cache size ............................    16
 getmpw: optimal value of mpw= 628
 For input ecut=  5.000000E+00 best grid ngfft=      12      12      80
       max ecut=  5.013643E+00
 
 ==== FFT mesh ====
  FFT mesh divisions ........................    12   12   80
  Augmented FFT divisions ...................    13   13   80
  FFT algorithm .............................   512
  FFT cache size ............................    16
 getmpw: optimal value of mpw= 628
 
 DATASET    1 : space group P1 (#  1); Bravais aP (primitive triclinic)
 
 getdim_nloc: deduce lmnmax  =  18, lnmax  =   6,
                      lmnmaxso=  18, lnmaxso=   6.
memory: analysis of memory needs
================================================================================
 Values of the parameters that define the memory need for DATASET  1.
     intxc =       0    ionmov =       2      iscf =       7    lmnmax =       6
     lnmax =       6     mgfft =      80  mpssoang =       3    mqgrid =    3805
     natom =       3  nloc_mem =       1    nspden =       1   nspinor =       1
    nsppol =       1      nsym =       1    n1xccc =    2501    ntypat =       2
    occopt =       1   xclevel =       2
-    mband =          14        mffmem =           1         mkmem =           5
       mpw =         628          nfft =       11520          nkpt =           5
================================================================================
P This job should need less than                       5.589 Mbytes of memory.
  Rough estimation (10% accuracy) of disk space for files :
_ WF disk file :      0.673 Mbytes ; DEN or POT disk file :      0.090 Mbytes.
================================================================================
 
 Biggest array : f_fftgr(disk), with      1.4083 MBytes.
 memana : allocated an array of      1.408 Mbytes, for testing purposes.
 memana: allocated       5.589Mbytes, for testing purposes. 
 The job will continue.
 
 DATASET    2 : space group P1 (#  1); Bravais aP (primitive triclinic)
 
 getdim_nloc: deduce lmnmax  =  18, lnmax  =   6,
                      lmnmaxso=  18, lnmaxso=   6.
memory: analysis of memory needs
================================================================================
 Values of the parameters that define the memory need for DATASET  2.
     intxc =       0    ionmov =       2      iscf =       7    lmnmax =       6
     lnmax =       6     mgfft =      80  mpssoang =       3    mqgrid =    3805
     natom =       3  nloc_mem =       1    nspden =       1   nspinor =       1
    nsppol =       1      nsym =       1    n1xccc =    2501    ntypat =       2
    occopt =       1   xclevel =       2
-    mband =          14        mffmem =           1         mkmem =           5
       mpw =         628          nfft =       11520          nkpt =           5
================================================================================
P This job should need less than                       5.589 Mbytes of memory.
  Rough estimation (10% accuracy) of disk space for files :
_ WF disk file :      0.673 Mbytes ; DEN or POT disk file :      0.090 Mbytes.
================================================================================
 
 Biggest array : f_fftgr(disk), with      1.4083 MBytes.
 memana : allocated an array of      1.408 Mbytes, for testing purposes.
 memana: allocated       5.589Mbytes, for testing purposes. 
 The job will continue.
 
 DATASET    3 : space group P1 (#  1); Bravais aP (primitive triclinic)
 
 getdim_nloc: deduce lmnmax  =  18, lnmax  =   6,
                      lmnmaxso=  18, lnmaxso=   6.
memory: analysis of memory needs
================================================================================
 Values of the parameters that define the memory need for DATASET  3.
     intxc =       0    ionmov =       2      iscf =       7    lmnmax =       6
     lnmax =       6     mgfft =      80  mpssoang =       3    mqgrid =    3805
     natom =       3  nloc_mem =       1    nspden =       1   nspinor =       1
    nsppol =       1      nsym =       1    n1xccc =    2501    ntypat =       2
    occopt =       1   xclevel =       2
-    mband =          14        mffmem =           1         mkmem =           5
       mpw =         628          nfft =       11520          nkpt =           5
================================================================================
P This job should need less than                       5.589 Mbytes of memory.
  Rough estimation (10% accuracy) of disk space for files :
_ WF disk file :      0.673 Mbytes ; DEN or POT disk file :      0.090 Mbytes.
================================================================================
 
 Biggest array : f_fftgr(disk), with      1.4083 MBytes.
 memana : allocated an array of      1.408 Mbytes, for testing purposes.
 memana: allocated       5.589Mbytes, for testing purposes. 
 The job will continue.
 
 DATASET    4 : space group P1 (#  1); Bravais aP (primitive triclinic)
 
 getdim_nloc: deduce lmnmax  =  18, lnmax  =   6,
                      lmnmaxso=  18, lnmaxso=   6.
memory: analysis of memory needs
================================================================================
 Values of the parameters that define the memory need for DATASET  4.
     intxc =       0    ionmov =       2      iscf =       7    lmnmax =       6
     lnmax =       6     mgfft =      80  mpssoang =       3    mqgrid =    3805
     natom =       3  nloc_mem =       1    nspden =       1   nspinor =       1
    nsppol =       1      nsym =       1    n1xccc =    2501    ntypat =       2
    occopt =       1   xclevel =       2
-    mband =          14        mffmem =           1         mkmem =           5
       mpw =         628          nfft =       11520          nkpt =           5
================================================================================
P This job should need less than                       5.589 Mbytes of memory.
  Rough estimation (10% accuracy) of disk space for files :
_ WF disk file :      0.673 Mbytes ; DEN or POT disk file :      0.090 Mbytes.
================================================================================
 
 Biggest array : f_fftgr(disk), with      1.4083 MBytes.
 memana : allocated an array of      1.408 Mbytes, for testing purposes.
 memana: allocated       5.589Mbytes, for testing purposes. 
 The job will continue.
--------------------------------------------------------------------------------
------------- Echo of variables that govern the present computation ------------
--------------------------------------------------------------------------------
-
- outvars: echo of selected default values                                      
-   iomode0 =  0 , fftalg0 =512 , wfoptalg0 =  0
-
- outvars: echo of global parameters not present in the input file              
-  max_nthreads =    0
-
 -outvars: echo values of preprocessed input variables --------
 
 These variables are accessible in NetCDF format (mos2_ecuto_OUT.nc)

            acell      5.9526373186E+00  5.9526373186E+00  3.7794522658E+01 Bohr
              amu      9.59400000E+01  3.20660000E+01
      chksymbreak           0
             ecut      5.00000000E+00 Hartree
-          fftalg         512
           ionmov           2
           istwfk        0    0    0    0    9
              ixc          11
           jdtset        1    2    3    4
              kpt      1.66666667E-01  1.66666667E-01  5.00000000E-01
                       5.00000000E-01  1.66666667E-01  5.00000000E-01
                      -1.66666667E-01  1.66666667E-01  5.00000000E-01
                       1.66666667E-01  5.00000000E-01  5.00000000E-01
                       5.00000000E-01  5.00000000E-01  5.00000000E-01
         kptrlatt        3    0    0      0    3    0      0    0    1
          kptrlen      1.78579120E+01
P           mkmem           5
            natom           3
            nband          14
           ndtset           4
            ngfft          12      12      80
             nkpt           5
            nstep          10
             nsym           1
            ntime          10
           ntypat           2
              occ      2.000000  2.000000  2.000000  2.000000  2.000000  2.000000
                       2.000000  2.000000  2.000000  2.000000  2.000000  2.000000
                       2.000000  0.000000
        optforces           1
            rprim      5.0000000000E-01 -8.6602540378E-01  0.0000000000E+00
                       5.0000000000E-01  8.6602540378E-01  0.0000000000E+00
                       0.0000000000E+00  0.0000000000E+00  1.0000000000E+00
           shiftk      5.00000000E-01  5.00000000E-01  5.00000000E-01
          spgroup           1
           toldff      5.00000000E-05
           tolmxf      5.00000000E-04
            typat      1  2  2
              wtk        0.22222    0.22222    0.22222    0.22222    0.11111
           xangst      1.5750000000E+00  9.0932667397E-01  0.0000000000E+00
                       1.5750000000E+00 -9.0932667397E-01 -1.8388847000E+00
                       1.5750000000E+00 -9.0932667397E-01  1.8388847000E+00
            xcart      2.9763186593E+00  1.7183783791E+00  0.0000000000E+00
                       2.9763186593E+00 -1.7183783791E+00 -3.4749884730E+00
                       2.9763186593E+00 -1.7183783791E+00  3.4749884730E+00
             xred      3.3333333333E-01  6.6666666667E-01  0.0000000000E+00
                       6.6666666667E-01  3.3333333333E-01 -9.1944235000E-02
                       6.6666666667E-01  3.3333333333E-01  9.1944235000E-02
            znucl       42.00000   16.00000
 
================================================================================
 
 chkinp: Checking input parameters for consistency, jdtset=   1.
 
 chkinp: Checking input parameters for consistency, jdtset=   2.
 
 chkinp: Checking input parameters for consistency, jdtset=   3.
 
 chkinp: Checking input parameters for consistency, jdtset=   4.
 DATA TYPE INFORMATION: 
 REAL:      Data type name: REAL(DP) 
            Kind value:      8
            Precision:      15
            Smallest nonnegligible quantity relative to 1: 0.22204460E-015
            Smallest positive number:                      0.22250739E-307
            Largest representable number:                  0.17976931E+309
 INTEGER:   Data type name: INTEGER(default) 
            Kind value: 4
            Bit size:   32
            Largest representable number: 2147483647
 LOGICAL:   Data type name: LOGICAL 
            Kind value: 4
 CHARACTER: Data type name: CHARACTER             Kind value: 1

  ==== OpenMP parallelism is OFF ====
 
  ==== Using MPI-2 specifications ==== 
  MPI-IO support is ON
  xmpi_tag_ub ................   1073741823
  xmpi_bsize_ch ..............            1
  xmpi_bsize_int .............            4
  xmpi_bsize_sp ..............            4
  xmpi_bsize_dp ..............            8
  xmpi_bsize_spc .............            8
  xmpi_bsize_dpc .............           16
  xmpio_bsize_frm ............            4
  xmpi_address_kind ..........            8
  xmpi_offset_kind ...........            8
  MPI_WTICK ..................   4.009467545859979E-010
 
================================================================================
== DATASET  1 ==================================================================
-   mpi_nproc: 1, omp_nthreads: -1 (-1 if OMP is not activated)
 
 
--- !COMMENT
src_file: m_xgScalapack.F90
src_line: 235
message: |
    xgScalapack in auto mode
...
 
 
 getdim_nloc: deduce lmnmax  =  18, lnmax  =   6,
                      lmnmaxso=  18, lnmaxso=   6.
 Exchange-correlation functional for the present dataset will be:
  GGA: Perdew-Burke-Ernzerhof functional - ixc=11
 Citation for XC functional:
  J.P.Perdew, K.Burke, M.Ernzerhof, PRL 77, 3865 (1996)
 
 Unit cell volume ucvol=  1.1597873E+03 bohr^3
 Angles (23,13,12)=  9.00000000E+01  9.00000000E+01  1.20000000E+02 degrees
 
 getcut: wavevector=  0.0000  0.0000  0.0000  ngfft=  12  12  80
         ecut(hartree)=      5.000   => boxcut(ratio)=   2.00273
- pspini: atom type   1  psp file is ./persudo/Mo.psp8
- pspatm: opening atomic psp file    ./persudo/Mo.psp8
- Mo    ONCVPSP-3.2.3.1  r_core=   1.45541   1.45541   1.35488
- 42.00000  14.00000    170510                znucl, zion, pspdat
    8   11    2    4       600   0.00000      pspcod,pspxc,lmax,lloc,mmax,r2well
    5.99000000000000    3.00000000000000    0.00000000000000   rchrg,fchrg,qchrg
     nproj     2     2     2
     extension_switch     1
  valence charge (before rescaling) integrates to:    13.9106199290666     
  pspatm : epsatm=   15.95693586
         --- l  ekb(1:nproj) -->
             0   13.833287    1.350687
             1    8.015347    1.134034
             2    2.765699    0.969071
 pspatm: atomic psp has been read  and splines computed
 
- pspini: atom type   2  psp file is ./persudo/S.psp8
- pspatm: opening atomic psp file    ./persudo/S.psp8
- S     ONCVPSP-4.0.1  r_core=   1.45687   1.45687   1.45687
- 16.00000   6.00000    220131                znucl, zion, pspdat
    8   11    2    4       600   0.00000      pspcod,pspxc,lmax,lloc,mmax,r2well
    5.99000000000000    6.00000000000000    0.00000000000000   rchrg,fchrg,qchrg
     nproj     2     2     2
     extension_switch     1
  valence charge (before rescaling) integrates to:    5.98952054080779     
  pspatm : epsatm=    9.04179351
         --- l  ekb(1:nproj) -->
             0    6.774234    0.542270
             1    3.022426    0.737017
             2   -5.033160   -1.531047
 pspatm: atomic psp has been read  and splines computed
 
   8.85053595E+02                                ecore*ucvol(ha*bohr**3)
 ==== Info on pseudopotentials ====
  Norm-conserving pseudopotentials
  Number of pseudopotentials ..    2
  Number of types of atoms   ..    2
  Scalar calculation (no spin-orbit term)
  Nonlocal part applied using Legendre polynomials
  Max number of non-local projectors over l and type   2
  Highest angular momentum +1 .......   3
  Max number of (l,n)   components ..   6
  Max number of (l,m,n) components ..   6
 
 Pseudo-Core Charge Info: 
   Number of radial points for pseudo-core charge .. 2501
   XC core-correction treatment (optnlxccc) ........    1
   Radius for pseudo-core charge for each type ..... 
 
  - Atom type    1 has pseudo-core radius ..  5.9900
  - Atom type    2 has pseudo-core radius ..  5.9900
 
 Info on the Q-grid used for form factors in spline form: 
   Number of q-points for radial functions ffspl ..   3805
   Number of q-points for vlspl ...................   3805
   vloc is computed in Reciprocal Space
   model core charge treated in real-space
 
  XC functional for type 1 is 11
  Pseudo valence available: yes
  XC functional for type 2 is 11
  Pseudo valence available: yes
 
 wfconv:    14 bands initialized randomly with npw=   622, for ikpt=     1
 wfconv:    14 bands initialized randomly with npw=   628, for ikpt=     2
 wfconv:    14 bands initialized randomly with npw=   594, for ikpt=     3
 wfconv:    14 bands initialized randomly with npw=   628, for ikpt=     4
 wfconv:    14 bands initialized randomly with npw=   312, for ikpt=     5
_setup2: Arith. and geom. avg. npw (full set) are     618.667     618.519
 initro: for itypat=  1, take pseudo charge density from pp file
 initro: for itypat=  2, take pseudo charge density from pp file
 
================================================================================
 
=== [ionmov= 2] Broyden-Fletcher-Goldfard-Shanno method (forces)            
================================================================================
 
--- Iteration: ( 1/10) Internal Cycle: (1/1)
--------------------------------------------------------------------------------
 
 Cartesian coordinates (xcart) [bohr]
  2.97631865929489E+00  1.71837837912920E+00  0.00000000000000E+00
  2.97631865929489E+00 -1.71837837912920E+00 -3.47498847295358E+00
  2.97631865929489E+00 -1.71837837912920E+00  3.47498847295358E+00
 Reduced coordinates (xred)
  3.33333333333333E-01  6.66666666666667E-01  0.00000000000000E+00
  6.66666666666667E-01  3.33333333333333E-01 -9.19442350000000E-02
  6.66666666666667E-01  3.33333333333333E-01  9.19442350000000E-02
 
---SELF-CONSISTENT-FIELD CONVERGENCE--------------------------------------------
 
 getcut: wavevector=  0.0000  0.0000  0.0000  ngfft=  12  12  80
         ecut(hartree)=      5.000   => boxcut(ratio)=   2.00273
 
 1/G**2 cut-off applied in the following step : cutoff-mode = CRYSTAL
 
 1/G**2 cut-off applied in the following step : cutoff-mode = CRYSTAL
 
 1/G**2 cut-off applied in the following step : cutoff-mode = CRYSTAL
 
--- !WARNING
src_file: m_drivexc.F90
src_line: 783
message: |
    Density went too small (lower than xc_denpos) at 3352 points
    and was set to xc_denpos =   1.00E-14. Lowest was  -0.25E-02.
    This might be due to (1) too low boxcut or (2) too low ecut for
     pseudopotential core charge, or (3) too low ecut for estimated initial density.
     Possible workarounds : increase ecut, or define the input variable densty,
     with a value larger than the guess for the decay length, or initialize your,
     density with a preliminary LDA or GGA-PBE if you are using a more exotic xc functional.
...
 
 
 ITER STEP NUMBER     1
 Max number of non-self-consistent loops: 2
 Total charge density [el/Bohr^3]
)     Maximum=    5.0402E-01  at reduced coord.    0.1667    0.5833    0.0000
)     Minimum=    6.1329E-05  at reduced coord.    0.5833    0.8333    0.5375
   Integrated=    2.6000E+01
 
 1/G**2 cut-off applied in the following step : cutoff-mode = CRYSTAL
 ETOT  1  -87.287730110514    -8.729E+01 1.989E-02 2.538E+03 8.232E-02 8.232E-02
 scprqt: <Vxc>= -1.9590386E-01 hartree
 
 Simple mixing update:
  residual square of the potential:    167.849251789322
{SCF_istep: 1 , Vnl|psi>: 762 , wall_time: '  2.44 [s] '} <<< TIME
 
 ITER STEP NUMBER     2
 Max number of non-self-consistent loops: 2
 Total charge density [el/Bohr^3]
)     Maximum=    6.0823E-01  at reduced coord.    0.2500    0.7500    0.0000
)     Minimum=    6.7931E-06  at reduced coord.    0.8333    0.1667    0.5125
   Integrated=    2.6000E+01
 ETOT  2  -87.535728711239    -2.480E-01 6.521E-03 1.379E+03 5.300E-01 4.550E-01
 scprqt: <Vxc>= -1.7037087E-01 hartree
 
 Pulay update with  1 previous iterations:
 mixing of old trial potential: alpha(m:m-4)=  0.587      0.413
{SCF_istep: 2 , Vnl|psi>: 735 , wall_time: '  0.13 [s] '} <<< TIME
 
 ITER STEP NUMBER     3
 Total charge density [el/Bohr^3]
)     Maximum=    5.6120E-01  at reduced coord.    0.4167    0.5833    0.0000
)     Minimum=    4.8439E-06  at reduced coord.    0.6667    0.4167    0.5000
   Integrated=    2.6000E+01
 ETOT  3  -88.623533128822    -1.088E+00 8.686E-03 3.814E+02 5.076E-01 5.263E-02
 scprqt: <Vxc>= -1.7002820E-01 hartree
 
 Pulay update with  2 previous iterations:
 mixing of old trial potential: alpha(m:m-4)=  0.681      0.295      0.239E-01
{SCF_istep: 3 , Vnl|psi>: 400 , wall_time: '  0.07 [s] '} <<< TIME
 
 ITER STEP NUMBER     4
 Total charge density [el/Bohr^3]
)     Maximum=    5.6815E-01  at reduced coord.    0.2500    0.7500    0.0000
)     Minimum=    4.8715E-06  at reduced coord.    0.6667    0.0000    0.5000
   Integrated=    2.6000E+01
 ETOT  4  -88.854490609785    -2.310E-01 1.171E-03 2.345E+01 1.196E-01 6.727E-02
 scprqt: <Vxc>= -1.6985077E-01 hartree
 
 Pulay update with  3 previous iterations:
 mixing of old trial potential: alpha(m:m-4)=  0.972     -0.143E-01  0.485E-01 -0.581E-02
{SCF_istep: 4 , Vnl|psi>: 400 , wall_time: '  0.07 [s] '} <<< TIME
 
 ITER STEP NUMBER     5
 Total charge density [el/Bohr^3]
)     Maximum=    5.7105E-01  at reduced coord.    0.2500    0.7500    0.0000
)     Minimum=    5.0333E-06  at reduced coord.    0.0000    0.3333    0.5000
   Integrated=    2.6000E+01
 ETOT  5  -88.861035073998    -6.544E-03 2.006E-04 9.095E+00 7.076E-03 7.424E-02
 scprqt: <Vxc>= -1.6961644E-01 hartree
 
 Pulay update with  4 previous iterations:
 mixing of old trial potential: alpha(m:m-4)=  0.966      0.575E-01 -0.218E-01 -0.173E-02 -0.298E-03
{SCF_istep: 5 , Vnl|psi>: 400 , wall_time: '  0.07 [s] '} <<< TIME
 
 ITER STEP NUMBER     6
 Total charge density [el/Bohr^3]
)     Maximum=    5.7118E-01  at reduced coord.    0.2500    0.7500    0.0000
)     Minimum=    5.0367E-06  at reduced coord.    0.6667    0.0000    0.5000
   Integrated=    2.6000E+01
 ETOT  6  -88.861263083059    -2.280E-04 2.085E-05 7.153E+00 2.764E-03 7.683E-02
 scprqt: <Vxc>= -1.6953490E-01 hartree
 
 Pulay update with  5 previous iterations:
 mixing of old trial potential: alpha(m:m-4)=   1.11     -0.105      0.231E-02 -0.429E-02 -0.146E-02
{SCF_istep: 6 , Vnl|psi>: 400 , wall_time: '  0.07 [s] '} <<< TIME
 
 ITER STEP NUMBER     7
 Total charge density [el/Bohr^3]
)     Maximum=    5.7120E-01  at reduced coord.    0.2500    0.7500    0.0000
)     Minimum=    5.0383E-06  at reduced coord.    0.6667    0.0000    0.5000
   Integrated=    2.6000E+01
 ETOT  7  -88.861317903309    -5.482E-05 1.424E-05 6.223E+00 3.436E-04 7.692E-02
 scprqt: <Vxc>= -1.6948189E-01 hartree
 
 Pulay update with  6 previous iterations:
 mixing of old trial potential: alpha(m:m-4)=   2.34      -1.22     -0.130      0.118E-01  0.135E-02
{SCF_istep: 7 , Vnl|psi>: 400 , wall_time: '  0.07 [s] '} <<< TIME
 
 ITER STEP NUMBER     8
 Total charge density [el/Bohr^3]
)     Maximum=    5.7117E-01  at reduced coord.    0.2500    0.7500    0.0000
)     Minimum=    5.0344E-06  at reduced coord.    0.6667    0.0000    0.5000
   Integrated=    2.6000E+01
 ETOT  8  -88.861393079287    -7.518E-05 1.928E-06 4.637E+00 7.414E-04 7.766E-02
 scprqt: <Vxc>= -1.6938854E-01 hartree
 
 Pulay update with  7 previous iterations:
 mixing of old trial potential: alpha(m:m-4)=   2.42      -1.45     -0.751E-01  0.121     -0.153E-01
{SCF_istep: 8 , Vnl|psi>: 400 , wall_time: '  0.07 [s] '} <<< TIME
 
 ITER STEP NUMBER     9
 Total charge density [el/Bohr^3]
)     Maximum=    5.7125E-01  at reduced coord.    0.2500    0.7500    0.0000
)     Minimum=    5.0348E-06  at reduced coord.    0.0000    0.3333    0.5000
   Integrated=    2.6000E+01
 ETOT  9  -88.861483271541    -9.019E-05 1.786E-06 2.595E+00 1.595E-03 7.896E-02
 scprqt: <Vxc>= -1.6926264E-01 hartree
 
 Pulay update with  7 previous iterations:
 mixing of old trial potential: alpha(m:m-4)=   1.50     -0.701      0.501E-01  0.128      0.238E-01
{SCF_istep: 9 , Vnl|psi>: 400 , wall_time: '  0.07 [s] '} <<< TIME
 
 ITER STEP NUMBER    10
 Total charge density [el/Bohr^3]
)     Maximum=    5.7126E-01  at reduced coord.    0.2500    0.7500    0.0000
)     Minimum=    5.0326E-06  at reduced coord.    0.6667    0.0000    0.5000
   Integrated=    2.6000E+01
 ETOT 10  -88.861494794295    -1.152E-05 3.911E-07 2.022E+00 4.418E-04 7.922E-02
 scprqt: <Vxc>= -1.6922888E-01 hartree
 
 Pulay update with  7 previous iterations:
 mixing of old trial potential: alpha(m:m-4)=   1.45     -0.158     -0.647      0.389     -0.100E-02
 
 -------------------------------------------------------------------------------------------------
 Ekinetic   = :     2.494223E+01 Ha ,    6.787127E+02 eV
 Evext_l    = :    -5.603938E+02 Ha ,   -1.524909E+04 eV
 Evext_nl   = :     1.157613E+01 Ha ,    3.150025E+02 eV
 Epsp_core  = :     7.631172E-01 Ha ,    2.076547E+01 eV
 Ehartree   = :     2.603280E+02 Ha ,    7.083886E+03 eV
 Exc_ks     = :    -1.565041E+01 Ha ,   -4.258692E+02 eV
 Enn        = :     1.895732E+02 Ha ,    5.158549E+03 eV
 -------------------------------------------------------------------------------------------------
 Etot       = :    -8.886149E+01 Ha ,   -2.418044E+03 eV
 -------------------------------------------------------------------------------------------------
 
 Cartesian components of stress tensor (hartree/bohr^3)
  sigma(1 1)=  3.96396736E-03  sigma(3 2)=  1.41239431E-08
  sigma(2 2)=  3.89867203E-03  sigma(3 1)=  1.30265218E-09
  sigma(3 3)=  4.22134238E-03  sigma(2 1)=  2.66238458E-09
 

--- !ScfConvergenceWarning
message: |
    nstep 10 was not enough SCF cycles to converge.
...
 
 scprqt:  WARNING -
  nstep=   10 was not enough SCF cycles to converge;
  maximum force difference=  4.418E-04 exceeds toldff=  5.000E-05
 
 
 fftdatar_write: About to write data to: mos2_ecuto_DS1_TIM1_DEN with iomode: IO_MODE_FORTRAN
 IO operation , wall:  0.04 [s] , cpu:  0.00 [s] <<< TIME
- Creating HDf5 file with MPI-IO support: mos2_ecuto_DS1_GSR.nc
 Integrated electronic density in atomic spheres:
 ------------------------------------------------
 Atom  Sphere_radius  Integrated_density
    1        2.00000          9.70170227
    2        2.00000          3.79658888
    3        2.00000          3.79564071
 Write iteration in HIST netCDF file (also create it)
 
---OUTPUT-----------------------------------------------------------------------
 
 Cartesian coordinates (xcart) [bohr]
  2.97631865929489E+00  1.71837837912920E+00  0.00000000000000E+00
  2.97631865929489E+00 -1.71837837912920E+00 -3.47498847295358E+00
  2.97631865929489E+00 -1.71837837912920E+00  3.47498847295358E+00
 Reduced coordinates (xred)
  3.33333333333333E-01  6.66666666666667E-01  0.00000000000000E+00
  6.66666666666667E-01  3.33333333333333E-01 -9.19442350000000E-02
  6.66666666666667E-01  3.33333333333333E-01  9.19442350000000E-02
 Cartesian forces (fcart) [Ha/bohr]; max,rms= 7.92182E-02 3.74552E-02 (free atoms)
 -1.88329870386645E-06  8.71852891120293E-03  2.47153027600033E-04
 -1.27438917715596E-06 -4.35340445386229E-03  7.89710500316607E-02
  3.15768788102241E-06 -4.36512445734064E-03 -7.92182030592607E-02
 Gradient of E wrt nuclear positions in reduced coordinates (gred)
  4.49508000335453E-02 -4.49395894393986E-02 -9.34103070155179E-03
 -2.24385952790780E-02  2.24461812556524E-02 -2.98467313972497E+00
 -2.25122047544673E-02  2.24934081837462E-02  2.99401417042653E+00
 Total energy (etotal) [Ha]= -8.88614947942946E+01
 fconv : at Broyd/MD step   1, gradients have not converged yet. 
  max grad (force/stress) = 7.9218E-02 > tolmxf= 5.0000E-04 ha/bohr (free atoms)
 
Inverse hessian has been initialized.
 EXIT:           1           1
 {mover_itime: 1 , wall_time: '  5.37 [s] '} <<< TIME
 
--- Iteration: ( 2/10) Internal Cycle: (1/1)
--------------------------------------------------------------------------------
 
 Cartesian coordinates (xcart) [bohr]
  2.97631677599618E+00  1.72709690804040E+00  2.47153027600033E-04
  2.97631738490571E+00 -1.72273178358306E+00 -3.39601742292192E+00
  2.97632181698277E+00 -1.72274350358654E+00  3.39577026989432E+00
 Reduced coordinates (xred)
  3.32487401010727E-01  6.67511966228162E-01  6.53938746199764E-06
  6.67088692184048E-01  3.32910879639629E-01 -8.98547510092412E-02
  6.67090573471891E-01  3.32910487465542E-01  8.98482116217792E-02
 
---SELF-CONSISTENT-FIELD CONVERGENCE--------------------------------------------
 
 getcut: wavevector=  0.0000  0.0000  0.0000  ngfft=  12  12  80
         ecut(hartree)=      5.000   => boxcut(ratio)=   2.00273
 
 ITER STEP NUMBER     1
 Max number of non-self-consistent loops: 2
 Total charge density [el/Bohr^3]
)     Maximum=    5.7507E-01  at reduced coord.    0.2500    0.7500    0.0000
)     Minimum=    5.2387E-06  at reduced coord.    0.0000    0.3333    0.5000
   Integrated=    2.6000E+01
 ETOT  1  -88.860343350320    -8.886E+01 6.284E-06 3.204E+01 2.624E-02 1.052E-01
 scprqt: <Vxc>= -1.6794831E-01 hartree
 
 Simple mixing update:
  residual square of the potential:    2.62992004527769
{SCF_istep: 1 , Vnl|psi>: 1200 , wall_time: '  2.32 [s] '} <<< TIME
 
 ITER STEP NUMBER     2
 Max number of non-self-consistent loops: 2
 Total charge density [el/Bohr^3]
)     Maximum=    5.6991E-01  at reduced coord.    0.2500    0.7500    0.0000
)     Minimum=    4.9508E-06  at reduced coord.    0.0000    0.3333    0.5000
   Integrated=    2.6000E+01
 ETOT  2  -88.864630193875    -4.287E-03 8.326E-07 5.563E+00 6.271E-02 4.277E-02
 scprqt: <Vxc>= -1.6805626E-01 hartree
 
 Pulay update with  1 previous iterations:
 mixing of old trial potential: alpha(m:m-4)=  0.724      0.276
{SCF_istep: 2 , Vnl|psi>: 748 , wall_time: '  0.13 [s] '} <<< TIME
 
 ITER STEP NUMBER     3
 Total charge density [el/Bohr^3]
)     Maximum=    5.7486E-01  at reduced coord.    0.2500    0.7500    0.0000
)     Minimum=    5.2269E-06  at reduced coord.    0.0000    0.3333    0.5000
   Integrated=    2.6000E+01
 ETOT  3  -88.867763207974    -3.133E-03 1.164E-04 1.140E+01 4.489E-02 8.740E-02
 scprqt: <Vxc>= -1.6826079E-01 hartree
 
 Pulay update with  2 previous iterations:
 mixing of old trial potential: alpha(m:m-4)=  0.613      0.401     -0.146E-01
{SCF_istep: 3 , Vnl|psi>: 400 , wall_time: '  0.07 [s] '} <<< TIME
 
 ITER STEP NUMBER     4
 Total charge density [el/Bohr^3]
)     Maximum=    5.7300E-01  at reduced coord.    0.2500    0.7500    0.0000
)     Minimum=    5.1090E-06  at reduced coord.    0.0000    0.3333    0.5000
   Integrated=    2.6000E+01
 ETOT  4  -88.872971383876    -5.208E-03 1.703E-05 1.639E+00 1.870E-02 6.870E-02
 scprqt: <Vxc>= -1.6826428E-01 hartree
 
 Pulay update with  3 previous iterations:
 mixing of old trial potential: alpha(m:m-4)=   1.55     -0.363     -0.190      0.156E-02
{SCF_istep: 4 , Vnl|psi>: 400 , wall_time: '  0.07 [s] '} <<< TIME
 
 ITER STEP NUMBER     5
 Total charge density [el/Bohr^3]
)     Maximum=    5.7287E-01  at reduced coord.    0.2500    0.7500    0.0000
)     Minimum=    5.1100E-06  at reduced coord.    0.0000    0.3333    0.5000
   Integrated=    2.6000E+01
 ETOT  5  -88.873072875658    -1.015E-04 3.352E-07 9.759E-01 1.616E-03 6.708E-02
 scprqt: <Vxc>= -1.6833932E-01 hartree
 
 Pulay update with  4 previous iterations:
 mixing of old trial potential: alpha(m:m-4)=   1.12      0.281     -0.262     -0.149      0.594E-02
{SCF_istep: 5 , Vnl|psi>: 400 , wall_time: '  0.07 [s] '} <<< TIME
 
 ITER STEP NUMBER     6
 Total charge density [el/Bohr^3]
)     Maximum=    5.7285E-01  at reduced coord.    0.2500    0.7500    0.0000
)     Minimum=    5.1085E-06  at reduced coord.    0.0000    0.3333    0.5000
   Integrated=    2.6000E+01
 ETOT  6  -88.873101723677    -2.885E-05 6.213E-08 6.825E-01 7.134E-04 6.661E-02
 scprqt: <Vxc>= -1.6838555E-01 hartree
 
 Pulay update with  5 previous iterations:
 mixing of old trial potential: alpha(m:m-4)=   1.66     -0.685      0.856E-02  0.915E-02  0.486E-02
{SCF_istep: 6 , Vnl|psi>: 400 , wall_time: '  0.07 [s] '} <<< TIME
 
 ITER STEP NUMBER     7
 Total charge density [el/Bohr^3]
)     Maximum=    5.7283E-01  at reduced coord.    0.2500    0.7500    0.0000
)     Minimum=    5.1083E-06  at reduced coord.    0.0000    0.3333    0.5000
   Integrated=    2.6000E+01
 ETOT  7  -88.873111528487    -9.805E-06 1.452E-08 5.124E-01 3.537E-04 6.626E-02
 scprqt: <Vxc>= -1.6841506E-01 hartree
 
 Pulay update with  6 previous iterations:
 mixing of old trial potential: alpha(m:m-4)=   1.74     -0.499     -0.216     -0.165      0.909E-01
{SCF_istep: 7 , Vnl|psi>: 400 , wall_time: '  0.07 [s] '} <<< TIME
 
 ITER STEP NUMBER     8
 Total charge density [el/Bohr^3]
)     Maximum=    5.7283E-01  at reduced coord.    0.2500    0.7500    0.0000
)     Minimum=    5.1089E-06  at reduced coord.    0.0000    0.3333    0.5000
   Integrated=    2.6000E+01
 ETOT  8  -88.873116222920    -4.694E-06 8.081E-09 3.758E-01 3.037E-04 6.623E-02
 scprqt: <Vxc>= -1.6844011E-01 hartree
 
 Pulay update with  7 previous iterations:
 mixing of old trial potential: alpha(m:m-4)=   1.90     -0.884     -0.328      0.412     -0.116
{SCF_istep: 8 , Vnl|psi>: 400 , wall_time: '  0.07 [s] '} <<< TIME
 
 ITER STEP NUMBER     9
 Total charge density [el/Bohr^3]
)     Maximum=    5.7283E-01  at reduced coord.    0.2500    0.7500    0.0000
)     Minimum=    5.1099E-06  at reduced coord.    0.0000    0.3333    0.5000
   Integrated=    2.6000E+01
 ETOT  9  -88.873118088711    -1.866E-06 5.271E-09 2.797E-01 3.083E-04 6.601E-02
 scprqt: <Vxc>= -1.6845532E-01 hartree
 
 Pulay update with  7 previous iterations:
 mixing of old trial potential: alpha(m:m-4)=   1.58     -0.375E-01 -0.903      0.187      0.169
{SCF_istep: 9 , Vnl|psi>: 400 , wall_time: '  0.07 [s] '} <<< TIME
 
 ITER STEP NUMBER    10
 Total charge density [el/Bohr^3]
)     Maximum=    5.7282E-01  at reduced coord.    0.2500    0.7500    0.0000
)     Minimum=    5.1108E-06  at reduced coord.    0.0000    0.3333    0.5000
   Integrated=    2.6000E+01
 ETOT 10  -88.873119266158    -1.177E-06 2.285E-09 2.039E-01 1.968E-04 6.602E-02
 scprqt: <Vxc>= -1.6846616E-01 hartree
 
 Pulay update with  7 previous iterations:
 mixing of old trial potential: alpha(m:m-4)=   2.74      -1.53      -1.42       1.66     -0.139
 
 -------------------------------------------------------------------------------------------------
 Ekinetic   = :     2.502369E+01 Ha ,    6.809291E+02 eV
 Evext_l    = :    -5.662445E+02 Ha ,   -1.540830E+04 eV
 Evext_nl   = :     1.159131E+01 Ha ,    3.154155E+02 eV
 Epsp_core  = :     7.631172E-01 Ha ,    2.076547E+01 eV
 Ehartree   = :     2.632461E+02 Ha ,    7.163290E+03 eV
 Exc_ks     = :    -1.568139E+01 Ha ,   -4.267124E+02 eV
 Enn        = :     1.924286E+02 Ha ,    5.236248E+03 eV
 -------------------------------------------------------------------------------------------------
 Etot       = :    -8.887312E+01 Ha ,   -2.418361E+03 eV
 -------------------------------------------------------------------------------------------------
 
 Cartesian components of stress tensor (hartree/bohr^3)
  sigma(1 1)=  3.94650892E-03  sigma(3 2)= -2.43121566E-09
  sigma(2 2)=  3.88094816E-03  sigma(3 1)=  1.02194354E-09
  sigma(3 3)=  4.14091035E-03  sigma(2 1)=  2.19558181E-10
 

--- !ScfConvergenceWarning
message: |
    nstep 10 was not enough SCF cycles to converge.
...
 
 scprqt:  WARNING -
  nstep=   10 was not enough SCF cycles to converge;
  maximum force difference=  1.968E-04 exceeds toldff=  5.000E-05
 
 
 fftdatar_write: About to write data to: mos2_ecuto_DS1_TIM2_DEN with iomode: IO_MODE_FORTRAN
 IO operation , wall:  0.07 [s] , cpu:  0.00 [s] <<< TIME
- Creating HDf5 file with MPI-IO support: mos2_ecuto_DS1_GSR.nc
 Integrated electronic density in atomic spheres:
 ------------------------------------------------
 Atom  Sphere_radius  Integrated_density
    1        2.00000          9.72026127
    2        2.00000          3.84268946
    3        2.00000          3.84302142
 Write iteration in HIST netCDF file
 
---OUTPUT-----------------------------------------------------------------------
 
 Cartesian coordinates (xcart) [bohr]
  2.97631677599618E+00  1.72709690804040E+00  2.47153027600033E-04
  2.97631738490571E+00 -1.72273178358306E+00 -3.39601742292192E+00
  2.97632181698277E+00 -1.72274350358654E+00  3.39577026989432E+00
 Reduced coordinates (xred)
  3.32487401010727E-01  6.67511966228162E-01  6.53938746199764E-06
  6.67088692184048E-01  3.32910879639629E-01 -8.98547510092412E-02
  6.67090573471891E-01  3.32910487465542E-01  8.98482116217792E-02
 Cartesian forces (fcart) [Ha/bohr]; max,rms= 6.60223E-02 3.11717E-02 (free atoms)
  6.02383271636516E-07  6.27545030706927E-03 -2.42262826252920E-04
  1.45261622129060E-07 -3.13885739976584E-03  6.60222864602071E-02
 -7.47644893765575E-07 -3.13659290730343E-03 -6.57800236339541E-02
 Gradient of E wrt nuclear positions in reduced coordinates (gred)
  3.23490014963312E-02 -3.23525872654741E-02  9.15620787593752E-03
 -1.61816664176584E-02  1.61808017279056E-02 -2.49528080153430E+00
 -1.61673350786728E-02  1.61717855375685E-02  2.48612459365837E+00
 Total energy (etotal) [Ha]= -8.88731192661578E+01
 
 Difference of energy with previous step (new-old):
           Absolute (Ha)=-1.16245E-02
           Relative     =-1.30807E-04
 fconv : at Broyd/MD step   2, gradients have not converged yet. 
  max grad (force/stress) = 6.6022E-02 > tolmxf= 5.0000E-04 ha/bohr (free atoms)
 
 EXIT:           1           1
 {mover_itime: 2 , wall_time: '  5.25 [s] '} <<< TIME
 
--- Iteration: ( 3/10) Internal Cycle: (1/1)
--------------------------------------------------------------------------------
 
 Cartesian coordinates (xcart) [bohr]
  2.97632035566579E+00  1.76452861213765E+00 -1.19501331028638E-03
  2.97631824407905E+00 -1.74145435257491E+00 -3.00227166598312E+00
  2.97631737813982E+00 -1.74145263869194E+00  3.00346667929341E+00
 Reduced coordinates (xred)
  3.28857476388947E-01  6.71143093567129E-01 -3.16186903882621E-05
  6.68904750989950E-01  3.31095109503539E-01 -7.94366869816898E-02
  6.68904439287770E-01  3.31095130262666E-01  7.94683056720781E-02
 
---SELF-CONSISTENT-FIELD CONVERGENCE--------------------------------------------
 
 getcut: wavevector=  0.0000  0.0000  0.0000  ngfft=  12  12  80
         ecut(hartree)=      5.000   => boxcut(ratio)=   2.00273
 
 ITER STEP NUMBER     1
 Max number of non-self-consistent loops: 2
 Total charge density [el/Bohr^3]
)     Maximum=    5.8856E-01  at reduced coord.    0.2500    0.7500    0.0000
)     Minimum=    6.1945E-06  at reduced coord.    0.7500    0.2500    0.5000
   Integrated=    2.6000E+01
 ETOT  1  -88.669411827444    -8.867E+01 1.516E-03 4.060E+02 1.017E-01 1.677E-01
 scprqt: <Vxc>= -1.6176399E-01 hartree
 
 Simple mixing update:
  residual square of the potential:    19.7902684360000
{SCF_istep: 1 , Vnl|psi>: 1201 , wall_time: '  2.32 [s] '} <<< TIME
 
 ITER STEP NUMBER     2
 Max number of non-self-consistent loops: 2
 Total charge density [el/Bohr^3]
)     Maximum=    5.6984E-01  at reduced coord.    0.2500    0.7500    0.0000
)     Minimum=    4.8831E-06  at reduced coord.    0.7500    0.2500    0.5000
   Integrated=    2.6000E+01
 ETOT  2  -88.818083547914    -1.487E-01 6.936E-04 3.728E+01 2.605E-01 9.279E-02
 scprqt: <Vxc>= -1.6210962E-01 hartree
 
 Pulay update with  1 previous iterations:
 mixing of old trial potential: alpha(m:m-4)=  0.658      0.342
{SCF_istep: 2 , Vnl|psi>: 738 , wall_time: '  0.12 [s] '} <<< TIME
 
 ITER STEP NUMBER     3
 Total charge density [el/Bohr^3]
)     Maximum=    5.8178E-01  at reduced coord.    0.2500    0.7500    0.0000
)     Minimum=    5.6418E-06  at reduced coord.    0.7500    0.2500    0.5000
   Integrated=    2.6000E+01
 ETOT  3  -88.881345617370    -6.326E-02 8.653E-04 3.384E+01 9.278E-02 1.279E-02
 scprqt: <Vxc>= -1.6277804E-01 hartree
 
 Pulay update with  2 previous iterations:
 mixing of old trial potential: alpha(m:m-4)=  0.855      0.175     -0.296E-01
{SCF_istep: 3 , Vnl|psi>: 400 , wall_time: '  0.07 [s] '} <<< TIME
 
 ITER STEP NUMBER     4
 Total charge density [el/Bohr^3]
)     Maximum=    5.7957E-01  at reduced coord.    0.2500    0.7500    0.0000
)     Minimum=    5.4775E-06  at reduced coord.    0.7500    0.2500    0.5000
   Integrated=    2.6000E+01
 ETOT  4  -88.889265157763    -7.920E-03 3.887E-05 1.345E+01 2.127E-02 2.132E-02
 scprqt: <Vxc>= -1.6290726E-01 hartree
 
 Pulay update with  3 previous iterations:
 mixing of old trial potential: alpha(m:m-4)=   1.28     -0.226     -0.471E-01 -0.118E-01
{SCF_istep: 4 , Vnl|psi>: 400 , wall_time: '  0.07 [s] '} <<< TIME
 
 ITER STEP NUMBER     5
 Total charge density [el/Bohr^3]
)     Maximum=    5.7952E-01  at reduced coord.    0.2500    0.7500    0.0000
)     Minimum=    5.4914E-06  at reduced coord.    0.7500    0.2500    0.5000
   Integrated=    2.6000E+01
 ETOT  5  -88.889824336020    -5.592E-04 1.151E-05 9.382E+00 3.414E-03 2.473E-02
 scprqt: <Vxc>= -1.6308122E-01 hartree
 
 Pulay update with  4 previous iterations:
 mixing of old trial potential: alpha(m:m-4)=   1.26     -0.134     -0.112     -0.140E-01  0.968E-03
{SCF_istep: 5 , Vnl|psi>: 400 , wall_time: '  0.07 [s] '} <<< TIME
 
 ITER STEP NUMBER     6
 Total charge density [el/Bohr^3]
)     Maximum=    5.7942E-01  at reduced coord.    0.2500    0.7500    0.0000
)     Minimum=    5.4863E-06  at reduced coord.    0.7500    0.2500    0.5000
   Integrated=    2.6000E+01
 ETOT  6  -88.890041546998    -2.172E-04 8.728E-07 7.093E+00 1.683E-03 2.641E-02
 scprqt: <Vxc>= -1.6319152E-01 hartree
 
 Pulay update with  5 previous iterations:
 mixing of old trial potential: alpha(m:m-4)=   2.38      -1.40     -0.290E-01  0.463E-01  0.377E-02
{SCF_istep: 6 , Vnl|psi>: 400 , wall_time: '  0.07 [s] '} <<< TIME
 
 ITER STEP NUMBER     7
 Total charge density [el/Bohr^3]
)     Maximum=    5.7936E-01  at reduced coord.    0.2500    0.7500    0.0000
)     Minimum=    5.4872E-06  at reduced coord.    0.7500    0.2500    0.5000
   Integrated=    2.6000E+01
 ETOT  7  -88.890178746635    -1.372E-04 4.312E-07 4.696E+00 1.476E-03 2.789E-02
 scprqt: <Vxc>= -1.6333016E-01 hartree
 
 Pulay update with  6 previous iterations:
 mixing of old trial potential: alpha(m:m-4)=   2.07      -1.68      0.638     -0.532E-01  0.200E-01
{SCF_istep: 7 , Vnl|psi>: 400 , wall_time: '  0.07 [s] '} <<< TIME
 
 ITER STEP NUMBER     8
 Total charge density [el/Bohr^3]
)     Maximum=    5.7933E-01  at reduced coord.    0.2500    0.7500    0.0000
)     Minimum=    5.4894E-06  at reduced coord.    0.7500    0.2500    0.5000
   Integrated=    2.6000E+01
 ETOT  8  -88.890218078912    -3.933E-05 8.144E-08 3.319E+00 6.073E-04 2.850E-02
 scprqt: <Vxc>= -1.6340762E-01 hartree
 
 Pulay update with  7 previous iterations:
 mixing of old trial potential: alpha(m:m-4)=   2.23      -1.66      0.426      0.163E-01  0.162E-02
{SCF_istep: 8 , Vnl|psi>: 395 , wall_time: '  0.07 [s] '} <<< TIME
 
 ITER STEP NUMBER     9
 Total charge density [el/Bohr^3]
)     Maximum=    5.7934E-01  at reduced coord.    0.2500    0.7500    0.0000
)     Minimum=    5.4944E-06  at reduced coord.    0.7500    0.2500    0.5000
   Integrated=    2.6000E+01
 ETOT  9  -88.890230695043    -1.262E-05 4.366E-08 2.362E+00 2.404E-04 2.872E-02
 scprqt: <Vxc>= -1.6345465E-01 hartree
 
 Pulay update with  7 previous iterations:
 mixing of old trial potential: alpha(m:m-4)=   2.63      -2.51      0.972      0.355E-01 -0.195
{SCF_istep: 9 , Vnl|psi>: 400 , wall_time: '  0.07 [s] '} <<< TIME
 
 ITER STEP NUMBER    10
 Total charge density [el/Bohr^3]
)     Maximum=    5.7932E-01  at reduced coord.    0.2500    0.7500    0.0000
)     Minimum=    5.4981E-06  at reduced coord.    0.7500    0.2500    0.5000
   Integrated=    2.6000E+01
 ETOT 10  -88.890238450885    -7.756E-06 5.096E-07 1.550E+00 2.732E-04 2.899E-02
 scprqt: <Vxc>= -1.6348482E-01 hartree
 
 Pulay update with  7 previous iterations:
 mixing of old trial potential: alpha(m:m-4)=   2.70      -2.62       1.01     -0.121      0.878E-01
 
 -------------------------------------------------------------------------------------------------
 Ekinetic   = :     2.547606E+01 Ha ,    6.932389E+02 eV
 Evext_l    = :    -5.950361E+02 Ha ,   -1.619176E+04 eV
 Evext_nl   = :     1.166272E+01 Ha ,    3.173586E+02 eV
 Epsp_core  = :     7.631172E-01 Ha ,    2.076547E+01 eV
 Ehartree   = :     2.773295E+02 Ha ,    7.546521E+03 eV
 Exc_ks     = :    -1.584339E+01 Ha ,   -4.311207E+02 eV
 Enn        = :     2.067578E+02 Ha ,    5.626167E+03 eV
 -------------------------------------------------------------------------------------------------
 Etot       = :    -8.889024E+01 Ha ,   -2.418826E+03 eV
 -------------------------------------------------------------------------------------------------
 
 Cartesian components of stress tensor (hartree/bohr^3)
  sigma(1 1)=  3.79983571E-03  sigma(3 2)=  2.75361042E-08
  sigma(2 2)=  3.75440782E-03  sigma(3 1)= -2.96202602E-10
  sigma(3 3)=  3.76198126E-03  sigma(2 1)= -1.33232350E-09
 

--- !ScfConvergenceWarning
message: |
    nstep 10 was not enough SCF cycles to converge.
...
 
 scprqt:  WARNING -
  nstep=   10 was not enough SCF cycles to converge;
  maximum force difference=  2.732E-04 exceeds toldff=  5.000E-05
 
 
 fftdatar_write: About to write data to: mos2_ecuto_DS1_TIM3_DEN with iomode: IO_MODE_FORTRAN
 IO operation , wall:  0.05 [s] , cpu:  0.00 [s] <<< TIME
- Creating HDf5 file with MPI-IO support: mos2_ecuto_DS1_GSR.nc
 Integrated electronic density in atomic spheres:
 ------------------------------------------------
 Atom  Sphere_radius  Integrated_density
    1        2.00000          9.86456557
    2        2.00000          3.92740190
    3        2.00000          3.92669581
 Write iteration in HIST netCDF file
 
---OUTPUT-----------------------------------------------------------------------
 
 Cartesian coordinates (xcart) [bohr]
  2.97632035566579E+00  1.76452861213765E+00 -1.19501331028638E-03
  2.97631824407905E+00 -1.74145435257491E+00 -3.00227166598312E+00
  2.97631737813982E+00 -1.74145263869194E+00  3.00346667929341E+00
 Reduced coordinates (xred)
  3.28857476388947E-01  6.71143093567129E-01 -3.16186903882621E-05
  6.68904750989950E-01  3.31095109503539E-01 -7.94366869816898E-02
  6.68904439287770E-01  3.31095130262666E-01  7.94683056720781E-02
 Cartesian forces (fcart) [Ha/bohr]; max,rms= 2.89928E-02 1.42122E-02 (free atoms)
 -8.88459567519560E-07 -1.15082908620291E-02  1.11072025722553E-03
  3.66879671718189E-07  5.76643101955826E-03 -2.89928288197665E-02
  5.21579895801372E-07  5.74185984247085E-03  2.78821085625410E-02
 Gradient of E wrt nuclear positions in reduced coordinates (gred)
 -5.93241502553342E-02  5.93294389329118E-02 -4.19791419280909E-02
  2.97256392154340E-02 -2.97278231170593E-02  1.09577012573986E+00
  2.95985110399002E-02 -2.96016158158525E-02 -1.05379098381177E+00
 Total energy (etotal) [Ha]= -8.88902384508847E+01
 
 Difference of energy with previous step (new-old):
           Absolute (Ha)=-1.71192E-02
           Relative     =-1.92606E-04
 fconv : at Broyd/MD step   3, gradients have not converged yet. 
  max grad (force/stress) = 2.8993E-02 > tolmxf= 5.0000E-04 ha/bohr (free atoms)
 
 EXIT:           1           1
 {mover_itime: 3 , wall_time: '  5.16 [s] '} <<< TIME
 
--- Iteration: ( 4/10) Internal Cycle: (1/1)
--------------------------------------------------------------------------------
 
 Cartesian coordinates (xcart) [bohr]
  2.97631882130689E+00  1.74705209680291E+00 -5.63924752840369E-05
  2.97631827528806E+00 -1.73270583840253E+00 -3.12226879048484E+00
  2.97631888128972E+00 -1.73272463752957E+00  3.12232518296013E+00
 Reduced coordinates (xred)
  3.30552277522329E-01  6.69447776911359E-01 -1.49208063281436E-06
  6.68056232000278E-01  3.31943638978984E-01 -8.26116741508222E-02
  6.68058157144060E-01  3.31941917442991E-01  8.26131662314551E-02
 
---SELF-CONSISTENT-FIELD CONVERGENCE--------------------------------------------
 
 getcut: wavevector=  0.0000  0.0000  0.0000  ngfft=  12  12  80
         ecut(hartree)=      5.000   => boxcut(ratio)=   2.00273
 
 ITER STEP NUMBER     1
 Max number of non-self-consistent loops: 2
 Total charge density [el/Bohr^3]
)     Maximum=    5.7510E-01  at reduced coord.    0.2500    0.7500    0.0000
)     Minimum=    5.3703E-06  at reduced coord.    0.8333    0.3333    0.5000
   Integrated=    2.6000E+01
 ETOT  1  -88.854511255454    -8.885E+01 1.397E-04 6.967E+01 4.800E-02 7.700E-02
 scprqt: <Vxc>= -1.6562783E-01 hartree
 
 Simple mixing update:
  residual square of the potential:    5.22349123576627
{SCF_istep: 1 , Vnl|psi>: 1197 , wall_time: '  2.32 [s] '} <<< TIME
 
 ITER STEP NUMBER     2
 Max number of non-self-consistent loops: 2
 Total charge density [el/Bohr^3]
)     Maximum=    5.8216E-01  at reduced coord.    0.2500    0.7500    0.0000
)     Minimum=    5.8413E-06  at reduced coord.    0.6667    0.1667    0.5000
   Integrated=    2.6000E+01
 ETOT  2  -88.875938366552    -2.143E-02 3.892E-05 1.167E+01 1.148E-01 3.783E-02
 scprqt: <Vxc>= -1.6572160E-01 hartree
 
 Pulay update with  1 previous iterations:
 mixing of old trial potential: alpha(m:m-4)=  0.701      0.299
{SCF_istep: 2 , Vnl|psi>: 745 , wall_time: '  0.13 [s] '} <<< TIME
 
 ITER STEP NUMBER     3
 Total charge density [el/Bohr^3]
)     Maximum=    5.7568E-01  at reduced coord.    0.2500    0.7500    0.0000
)     Minimum=    5.4309E-06  at reduced coord.    0.8333    0.3333    0.5000
   Integrated=    2.6000E+01
 ETOT  3  -88.889080516281    -1.314E-02 2.118E-04 8.121E+00 5.354E-02 1.572E-02
 scprqt: <Vxc>= -1.6543627E-01 hartree
 
 Pulay update with  2 previous iterations:
 mixing of old trial potential: alpha(m:m-4)=  0.714      0.299     -0.130E-01
{SCF_istep: 3 , Vnl|psi>: 400 , wall_time: '  0.07 [s] '} <<< TIME
 
 ITER STEP NUMBER     4
 Total charge density [el/Bohr^3]
)     Maximum=    5.7740E-01  at reduced coord.    0.2500    0.7500    0.0000
)     Minimum=    5.5441E-06  at reduced coord.    0.6667    0.1667    0.5000
   Integrated=    2.6000E+01
 ETOT  4  -88.893216378491    -4.136E-03 2.259E-05 1.275E+00 1.657E-02 2.532E-03
 scprqt: <Vxc>= -1.6544668E-01 hartree
 
 Pulay update with  3 previous iterations:
 mixing of old trial potential: alpha(m:m-4)=   1.16     -0.129     -0.221E-01 -0.655E-02
{SCF_istep: 4 , Vnl|psi>: 400 , wall_time: '  0.07 [s] '} <<< TIME
 
 ITER STEP NUMBER     5
 Total charge density [el/Bohr^3]
)     Maximum=    5.7757E-01  at reduced coord.    0.2500    0.7500    0.0000
)     Minimum=    5.5531E-06  at reduced coord.    0.8333    0.3333    0.5000
   Integrated=    2.6000E+01
 ETOT  5  -88.893309904735    -9.353E-05 5.305E-05 7.801E-01 1.380E-03 2.610E-03
 scprqt: <Vxc>= -1.6538497E-01 hartree
 
 Pulay update with  4 previous iterations:
 mixing of old trial potential: alpha(m:m-4)=   1.32     -0.127     -0.142     -0.519E-01  0.124E-02
{SCF_istep: 5 , Vnl|psi>: 401 , wall_time: '  0.07 [s] '} <<< TIME
 
 ITER STEP NUMBER     6
 Total charge density [el/Bohr^3]
)     Maximum=    5.7760E-01  at reduced coord.    0.2500    0.7500    0.0000
)     Minimum=    5.5558E-06  at reduced coord.    0.8333    0.3333    0.5000
   Integrated=    2.6000E+01
 ETOT  6  -88.893339974440    -3.007E-05 4.996E-05 5.182E-01 7.838E-04 3.100E-03
 scprqt: <Vxc>= -1.6533832E-01 hartree
 
 Pulay update with  5 previous iterations:
 mixing of old trial potential: alpha(m:m-4)=   1.84     -0.899      0.765E-01 -0.115E-01 -0.602E-02
{SCF_istep: 6 , Vnl|psi>: 400 , wall_time: '  0.07 [s] '} <<< TIME
 
 ITER STEP NUMBER     7
 Total charge density [el/Bohr^3]
)     Maximum=    5.7762E-01  at reduced coord.    0.2500    0.7500    0.0000
)     Minimum=    5.5565E-06  at reduced coord.    0.8333    0.3333    0.5000
   Integrated=    2.6000E+01
 ETOT  7  -88.893352800730    -1.283E-05 2.660E-04 3.426E-01 4.532E-04 3.519E-03
 scprqt: <Vxc>= -1.6529727E-01 hartree
 
 Pulay update with  6 previous iterations:
 mixing of old trial potential: alpha(m:m-4)=   2.10      -1.00     -0.118     -0.524E-01  0.533E-01
{SCF_istep: 7 , Vnl|psi>: 400 , wall_time: '  0.07 [s] '} <<< TIME
 
 ITER STEP NUMBER     8
 Total charge density [el/Bohr^3]
)     Maximum=    5.7762E-01  at reduced coord.    0.2500    0.7500    0.0000
)     Minimum=    5.5557E-06  at reduced coord.    0.6667    0.1667    0.5000
   Integrated=    2.6000E+01
 ETOT  8  -88.893358925650    -6.125E-06 1.581E-04 2.048E-01 2.869E-04 3.806E-03
 scprqt: <Vxc>= -1.6525501E-01 hartree
 
 Pulay update with  7 previous iterations:
 mixing of old trial potential: alpha(m:m-4)=   2.15      -1.80      0.364      0.364     -0.579E-01
{SCF_istep: 8 , Vnl|psi>: 400 , wall_time: '  0.07 [s] '} <<< TIME
 
 ITER STEP NUMBER     9
 Total charge density [el/Bohr^3]
)     Maximum=    5.7763E-01  at reduced coord.    0.2500    0.7500    0.0000
)     Minimum=    5.5554E-06  at reduced coord.    0.8333    0.3333    0.5000
   Integrated=    2.6000E+01
 ETOT  9  -88.893359991871    -1.066E-06 6.642E-04 1.481E-01 8.691E-05 3.858E-03
 scprqt: <Vxc>= -1.6524104E-01 hartree
 
 Pulay update with  7 previous iterations:
 mixing of old trial potential: alpha(m:m-4)=   1.60     -0.884      0.409     -0.831E-01 -0.564E-01
{SCF_istep: 9 , Vnl|psi>: 400 , wall_time: '  0.07 [s] '} <<< TIME
 
 ITER STEP NUMBER    10
 Total charge density [el/Bohr^3]
)     Maximum=    5.7763E-01  at reduced coord.    0.2500    0.7500    0.0000
)     Minimum=    5.5549E-06  at reduced coord.    0.6667    0.1667    0.5000
   Integrated=    2.6000E+01
 ETOT 10  -88.893360174672    -1.828E-07 2.019E-04 1.235E-01 3.297E-05 3.891E-03
 scprqt: <Vxc>= -1.6523708E-01 hartree
 
 Pulay update with  7 previous iterations:
 mixing of old trial potential: alpha(m:m-4)=   2.17     -0.742     -0.826      0.562     -0.490E-01
 
 -------------------------------------------------------------------------------------------------
 Ekinetic   = :     2.531993E+01 Ha ,    6.889904E+02 eV
 Evext_l    = :    -5.861881E+02 Ha ,   -1.595099E+04 eV
 Evext_nl   = :     1.163910E+01 Ha ,    3.167161E+02 eV
 Epsp_core  = :     7.631172E-01 Ha ,    2.076547E+01 eV
 Ehartree   = :     2.729802E+02 Ha ,    7.428168E+03 eV
 Exc_ks     = :    -1.578971E+01 Ha ,   -4.296598E+02 eV
 Enn        = :     2.023821E+02 Ha ,    5.507096E+03 eV
 -------------------------------------------------------------------------------------------------
 Etot       = :    -8.889336E+01 Ha ,   -2.418911E+03 eV
 -------------------------------------------------------------------------------------------------
 
 Cartesian components of stress tensor (hartree/bohr^3)
  sigma(1 1)=  3.85369162E-03  sigma(3 2)= -3.91777850E-09
  sigma(2 2)=  3.79661593E-03  sigma(3 1)=  5.59606040E-11
  sigma(3 3)=  3.89209534E-03  sigma(2 1)=  9.07747585E-10
 
 
 fftdatar_write: About to write data to: mos2_ecuto_DS1_TIM4_DEN with iomode: IO_MODE_FORTRAN
 IO operation , wall:  0.05 [s] , cpu:  0.00 [s] <<< TIME
- Creating HDf5 file with MPI-IO support: mos2_ecuto_DS1_GSR.nc
 Integrated electronic density in atomic spheres:
 ------------------------------------------------
 Atom  Sphere_radius  Integrated_density
    1        2.00000          9.80472456
    2        2.00000          3.92756556
    3        2.00000          3.92743682
 Write iteration in HIST netCDF file
 
---OUTPUT-----------------------------------------------------------------------
 
 Cartesian coordinates (xcart) [bohr]
  2.97631882130689E+00  1.74705209680291E+00 -5.63924752840369E-05
  2.97631827528806E+00 -1.73270583840253E+00 -3.12226879048484E+00
  2.97631888128972E+00 -1.73272463752957E+00  3.12232518296013E+00
 Reduced coordinates (xred)
  3.30552277522329E-01  6.69447776911359E-01 -1.49208063281436E-06
  6.68056232000278E-01  3.31943638978984E-01 -8.26116741508222E-02
  6.68058157144060E-01  3.31941917442991E-01  8.26131662314551E-02
 Cartesian forces (fcart) [Ha/bohr]; max,rms= 3.89081E-03 2.11559E-03 (free atoms)
  7.11087688763035E-07 -2.65819446483877E-03  7.79196448467544E-05
 -3.26286647398165E-07  1.32845117259551E-03  3.81288652590689E-03
 -3.84801041364869E-07  1.32974329224326E-03 -3.89080617075364E-03
 Gradient of E wrt nuclear positions in reduced coordinates (gred)
 -1.37054681112560E-02  1.37012352641431E-02 -2.94493578264160E-03
  6.84931645118781E-03 -6.84737418511395E-03 -1.44106226194676E-01
  6.85615166006823E-03 -6.85386107902917E-03  1.47051161977317E-01
 Total energy (etotal) [Ha]= -8.88933601746718E+01
 
 Difference of energy with previous step (new-old):
           Absolute (Ha)=-3.12172E-03
           Relative     =-3.51182E-05
 fconv : at Broyd/MD step   4, gradients have not converged yet. 
  max grad (force/stress) = 3.8908E-03 > tolmxf= 5.0000E-04 ha/bohr (free atoms)
 
 EXIT:           1           1
 {mover_itime: 4 , wall_time: '  5.39 [s] '} <<< TIME
 
--- Iteration: ( 5/10) Internal Cycle: (1/1)
--------------------------------------------------------------------------------
 
 Cartesian coordinates (xcart) [bohr]
  2.97631951994939E+00  1.74532284253173E+00  1.37096034528111E-05
  2.97631801845203E+00 -1.73184151872503E+00 -3.10878105790113E+00
  2.97631843948324E+00 -1.73185970293590E+00  3.10876734829768E+00
 Reduced coordinates (xred)
  3.30720116415915E-01  6.69280172751545E-01  3.62740484301719E-07
  6.67972357910899E-01  3.32027426775175E-01 -8.22548041168793E-02
  6.67974192339852E-01  3.32025733806614E-01  8.22544413763951E-02
 
---SELF-CONSISTENT-FIELD CONVERGENCE--------------------------------------------
 
 getcut: wavevector=  0.0000  0.0000  0.0000  ngfft=  12  12  80
         ecut(hartree)=      5.000   => boxcut(ratio)=   2.00273
 
 ITER STEP NUMBER     1
 Max number of non-self-consistent loops: 2
 Total charge density [el/Bohr^3]
)     Maximum=    5.7814E-01  at reduced coord.    0.2500    0.7500    0.0000
)     Minimum=    5.5916E-06  at reduced coord.    0.8333    0.3333    0.5000
   Integrated=    2.6000E+01
 ETOT  1  -88.893074791855    -8.889E+01 1.532E-04 2.209E+00 4.562E-03 8.375E-03
 scprqt: <Vxc>= -1.6486566E-01 hartree
 
 Simple mixing update:
  residual square of the potential:    1.32722257274472
{SCF_istep: 1 , Vnl|psi>: 1204 , wall_time: '  2.32 [s] '} <<< TIME
 
 ITER STEP NUMBER     2
 Max number of non-self-consistent loops: 2
 Total charge density [el/Bohr^3]
)     Maximum=    5.7756E-01  at reduced coord.    0.2500    0.7500    0.0000
)     Minimum=    5.5489E-06  at reduced coord.    0.8333    0.3333    0.5000
   Integrated=    2.6000E+01
 ETOT  2  -88.893329189205    -2.544E-04 5.980E-05 5.449E-02 9.995E-03 2.216E-03
 scprqt: <Vxc>= -1.6489618E-01 hartree
 
 Pulay update with  1 previous iterations:
 mixing of old trial potential: alpha(m:m-4)=   1.00     -0.310E-02
{SCF_istep: 2 , Vnl|psi>: 751 , wall_time: '  0.13 [s] '} <<< TIME
 
 ITER STEP NUMBER     3
 Total charge density [el/Bohr^3]
)     Maximum=    5.7829E-01  at reduced coord.    0.2500    0.7500    0.0000
)     Minimum=    5.5957E-06  at reduced coord.    0.8333    0.3333    0.5000
   Integrated=    2.6000E+01
 ETOT  3  -88.893264070607     6.512E-05 1.194E-04 3.278E-01 6.018E-03 4.398E-03
 scprqt: <Vxc>= -1.6494368E-01 hartree
 
 Pulay update with  2 previous iterations:
 mixing of old trial potential: alpha(m:m-4)=  0.502      0.509     -0.104E-01
{SCF_istep: 3 , Vnl|psi>: 400 , wall_time: '  0.07 [s] '} <<< TIME
 
 ITER STEP NUMBER     4
 Total charge density [el/Bohr^3]
)     Maximum=    5.7793E-01  at reduced coord.    0.2500    0.7500    0.0000
)     Minimum=    5.5726E-06  at reduced coord.    0.8333    0.3333    0.5000
   Integrated=    2.6000E+01
 ETOT  4  -88.893425062232    -1.610E-04 2.327E-05 5.831E-02 3.256E-03 2.251E-03
 scprqt: <Vxc>= -1.6493721E-01 hartree
 
 Pulay update with  3 previous iterations:
 mixing of old trial potential: alpha(m:m-4)=   1.56     -0.312     -0.255      0.485E-02
{SCF_istep: 4 , Vnl|psi>: 400 , wall_time: '  0.07 [s] '} <<< TIME
 
 ITER STEP NUMBER     5
 Total charge density [el/Bohr^3]
)     Maximum=    5.7791E-01  at reduced coord.    0.2500    0.7500    0.0000
)     Minimum=    5.5717E-06  at reduced coord.    0.8333    0.3333    0.5000
   Integrated=    2.6000E+01
 ETOT  5  -88.893428372378    -3.310E-06 4.058E-05 3.624E-02 2.349E-04 2.199E-03
 scprqt: <Vxc>= -1.6495445E-01 hartree
 
 Pulay update with  4 previous iterations:
 mixing of old trial potential: alpha(m:m-4)=   1.35     -0.153     -0.111     -0.897E-01  0.224E-02
{SCF_istep: 5 , Vnl|psi>: 400 , wall_time: '  0.07 [s] '} <<< TIME
 
 ITER STEP NUMBER     6
 Total charge density [el/Bohr^3]
)     Maximum=    5.7790E-01  at reduced coord.    0.2500    0.7500    0.0000
)     Minimum=    5.5715E-06  at reduced coord.    0.8333    0.3333    0.5000
   Integrated=    2.6000E+01
 ETOT  6  -88.893429615033    -1.243E-06 7.837E-06 2.442E-02 1.527E-04 2.213E-03
 scprqt: <Vxc>= -1.6496538E-01 hartree
 
 Pulay update with  5 previous iterations:
 mixing of old trial potential: alpha(m:m-4)=   1.54     -0.410     -0.177      0.268E-01  0.230E-01
{SCF_istep: 6 , Vnl|psi>: 400 , wall_time: '  0.07 [s] '} <<< TIME
 
 ITER STEP NUMBER     7
 Total charge density [el/Bohr^3]
)     Maximum=    5.7790E-01  at reduced coord.    0.2500    0.7500    0.0000
)     Minimum=    5.5715E-06  at reduced coord.    0.8333    0.3333    0.5000
   Integrated=    2.6000E+01
 ETOT  7  -88.893430064728    -4.497E-07 1.419E-05 1.757E-02 8.136E-05 2.209E-03
 scprqt: <Vxc>= -1.6497277E-01 hartree
 
 Pulay update with  6 previous iterations:
 mixing of old trial potential: alpha(m:m-4)=   1.79     -0.939      0.149     -0.431E-01  0.228E-01
{SCF_istep: 7 , Vnl|psi>: 400 , wall_time: '  0.07 [s] '} <<< TIME
 
 ITER STEP NUMBER     8
 Total charge density [el/Bohr^3]
)     Maximum=    5.7790E-01  at reduced coord.    0.2500    0.7500    0.0000
)     Minimum=    5.5717E-06  at reduced coord.    0.8333    0.3333    0.5000
   Integrated=    2.6000E+01
 ETOT  8  -88.893430186557    -1.218E-07 2.713E-06 1.374E-02 2.708E-05 2.210E-03
 scprqt: <Vxc>= -1.6497660E-01 hartree
 
 Pulay update with  7 previous iterations:
 mixing of old trial potential: alpha(m:m-4)=   2.55      -1.75      0.114      0.392E-01  0.863E-01
{SCF_istep: 8 , Vnl|psi>: 400 , wall_time: '  0.07 [s] '} <<< TIME
 
 ITER STEP NUMBER     9
 Total charge density [el/Bohr^3]
)     Maximum=    5.7790E-01  at reduced coord.    0.2500    0.7500    0.0000
)     Minimum=    5.5719E-06  at reduced coord.    0.8333    0.3333    0.5000
   Integrated=    2.6000E+01
 ETOT  9  -88.893430255957    -6.940E-08 4.925E-06 9.591E-03 1.978E-05 2.204E-03
 scprqt: <Vxc>= -1.6498014E-01 hartree
 
 At SCF step    9, forces are converged : 
  for the second time, max diff in force=  1.978E-05 < toldff=  5.000E-05
 
 -------------------------------------------------------------------------------------------------
 Ekinetic   = :     2.533811E+01 Ha ,    6.894849E+02 eV
 Evext_l    = :    -5.872054E+02 Ha ,   -1.597867E+04 eV
 Evext_nl   = :     1.164192E+01 Ha ,    3.167927E+02 eV
 Epsp_core  = :     7.631172E-01 Ha ,    2.076547E+01 eV
 Ehartree   = :     2.734884E+02 Ha ,    7.441998E+03 eV
 Exc_ks     = :    -1.579599E+01 Ha ,   -4.298307E+02 eV
 Enn        = :     2.028765E+02 Ha ,    5.520549E+03 eV
 -------------------------------------------------------------------------------------------------
 Etot       = :    -8.889343E+01 Ha ,   -2.418913E+03 eV
 -------------------------------------------------------------------------------------------------
 
 Cartesian components of stress tensor (hartree/bohr^3)
  sigma(1 1)=  3.84885554E-03  sigma(3 2)= -4.59443090E-09
  sigma(2 2)=  3.79180632E-03  sigma(3 1)=  1.19438056E-10
  sigma(3 3)=  3.87587892E-03  sigma(2 1)=  7.60819472E-10
 
 
 fftdatar_write: About to write data to: mos2_ecuto_DS1_TIM5_DEN with iomode: IO_MODE_FORTRAN
 IO operation , wall:  0.04 [s] , cpu:  0.00 [s] <<< TIME
- Creating HDf5 file with MPI-IO support: mos2_ecuto_DS1_GSR.nc
 Integrated electronic density in atomic spheres:
 ------------------------------------------------
 Atom  Sphere_radius  Integrated_density
    1        2.00000          9.80913939
    2        2.00000          3.92876559
    3        2.00000          3.92876066
 Write iteration in HIST netCDF file
 
---OUTPUT-----------------------------------------------------------------------
 
 Cartesian coordinates (xcart) [bohr]
  2.97631951994939E+00  1.74532284253173E+00  1.37096034528111E-05
  2.97631801845203E+00 -1.73184151872503E+00 -3.10878105790113E+00
  2.97631843948324E+00 -1.73185970293590E+00  3.10876734829768E+00
 Reduced coordinates (xred)
  3.30720116415915E-01  6.69280172751545E-01  3.62740484301719E-07
  6.67972357910899E-01  3.32027426775175E-01 -8.22548041168793E-02
  6.67974192339852E-01  3.32025733806614E-01  8.22544413763951E-02
 Cartesian forces (fcart) [Ha/bohr]; max,rms= 2.20413E-03 9.46827E-04 (free atoms)
  5.35525958244987E-08 -2.20412844428359E-03 -1.16653338160601E-05
  2.39018165380048E-09  1.10085151433019E-03  6.30670054298274E-04
 -5.59427774782991E-08  1.10327692995341E-03 -6.19004720482214E-04
 Gradient of E wrt nuclear positions in reduced coordinates (gred)
 -1.13627393800320E-02  1.13624206008516E-02  4.40885723220869E-04
  5.67503120862766E-03 -5.67504543651217E-03 -2.38358736567171E-02
  5.68770817140439E-03 -5.68737516433947E-03  2.33949879334963E-02
 Total energy (etotal) [Ha]= -8.88934302559575E+01
 
 Difference of energy with previous step (new-old):
           Absolute (Ha)=-7.00813E-05
           Relative     =-7.88374E-07
 fconv : at Broyd/MD step   5, gradients have not converged yet. 
  max grad (force/stress) = 2.2041E-03 > tolmxf= 5.0000E-04 ha/bohr (free atoms)
 
 EXIT:           1           1
 {mover_itime: 5 , wall_time: '  5.12 [s] '} <<< TIME
 
--- Iteration: ( 6/10) Internal Cycle: (1/1)
--------------------------------------------------------------------------------
 
 Cartesian coordinates (xcart) [bohr]
  2.97631962784951E+00  1.74257045354136E+00  4.99983608637439E-06
  2.97631801287816E+00 -1.73046678627101E+00 -3.10556294900350E+00
  2.97631833715699E+00 -1.73048204639955E+00  3.10555794916742E+00
 Reduced coordinates (xred)
  3.30987090588802E-01  6.69013234831534E-01  1.32289965179757E-07
  6.67839020755654E-01  3.32160762057681E-01 -8.21696566227101E-02
  6.67840555322209E-01  3.32159336444119E-01  8.21695243327450E-02
 
---SELF-CONSISTENT-FIELD CONVERGENCE--------------------------------------------
 
 getcut: wavevector=  0.0000  0.0000  0.0000  ngfft=  12  12  80
         ecut(hartree)=      5.000   => boxcut(ratio)=   2.00273
 
 ITER STEP NUMBER     1
 Max number of non-self-consistent loops: 2
 Total charge density [el/Bohr^3]
)     Maximum=    5.7805E-01  at reduced coord.    0.2500    0.7500    0.0000
)     Minimum=    5.5960E-06  at reduced coord.    0.8333    0.3333    0.5000
   Integrated=    2.6000E+01
 ETOT  1  -88.893420771759    -8.889E+01 2.548E-06 3.580E-01 4.251E-04 2.553E-03
 scprqt: <Vxc>= -1.6491080E-01 hartree
 
 Simple mixing update:
  residual square of the potential:   0.316630629619769
{SCF_istep: 1 , Vnl|psi>: 1204 , wall_time: '  2.35 [s] '} <<< TIME
 
 ITER STEP NUMBER     2
 Max number of non-self-consistent loops: 2
 Total charge density [el/Bohr^3]
)     Maximum=    5.7789E-01  at reduced coord.    0.2500    0.7500    0.0000
)     Minimum=    5.5829E-06  at reduced coord.    0.8333    0.3333    0.5000
   Integrated=    2.6000E+01
 ETOT  2  -88.893430624426    -9.853E-06 5.169E-07 4.337E-03 1.985E-03 1.074E-03
 scprqt: <Vxc>= -1.6491836E-01 hartree
 
 Pulay update with  1 previous iterations:
 mixing of old trial potential: alpha(m:m-4)=   1.02     -0.165E-01
{SCF_istep: 2 , Vnl|psi>: 746 , wall_time: '  0.13 [s] '} <<< TIME
 
 ITER STEP NUMBER     3
 Total charge density [el/Bohr^3]
)     Maximum=    5.7808E-01  at reduced coord.    0.2500    0.7500    0.0000
)     Minimum=    5.5955E-06  at reduced coord.    0.8333    0.3333    0.5000
   Integrated=    2.6000E+01
 ETOT  3  -88.893427395834     3.229E-06 2.071E-07 1.662E-02 1.597E-03 1.217E-03
 scprqt: <Vxc>= -1.6492874E-01 hartree
 
 Pulay update with  2 previous iterations:
 mixing of old trial potential: alpha(m:m-4)=  0.521      0.490     -0.109E-01
{SCF_istep: 3 , Vnl|psi>: 400 , wall_time: '  0.07 [s] '} <<< TIME
 
 ITER STEP NUMBER     4
 Total charge density [el/Bohr^3]
)     Maximum=    5.7797E-01  at reduced coord.    0.2500    0.7500    0.0000
)     Minimum=    5.5890E-06  at reduced coord.    0.8333    0.3333    0.5000
   Integrated=    2.6000E+01
 ETOT  4  -88.893438153625    -1.076E-05 1.479E-07 1.303E-03 8.975E-04 1.222E-03
 scprqt: <Vxc>= -1.6492606E-01 hartree
 
 Pulay update with  3 previous iterations:
 mixing of old trial potential: alpha(m:m-4)=   1.11     -0.486E-01 -0.667E-01  0.108E-02
{SCF_istep: 4 , Vnl|psi>: 399 , wall_time: '  0.07 [s] '} <<< TIME
 
 ITER STEP NUMBER     5
 Total charge density [el/Bohr^3]
)     Maximum=    5.7798E-01  at reduced coord.    0.2500    0.7500    0.0000
)     Minimum=    5.5890E-06  at reduced coord.    0.8333    0.3333    0.5000
   Integrated=    2.6000E+01
 ETOT  5  -88.893438181192    -2.757E-08 3.200E-08 1.097E-03 2.416E-05 1.198E-03
 scprqt: <Vxc>= -1.6492827E-01 hartree
 
 Pulay update with  4 previous iterations:
 mixing of old trial potential: alpha(m:m-4)=   1.21     -0.130     -0.519E-01 -0.310E-01  0.713E-03
{SCF_istep: 5 , Vnl|psi>: 403 , wall_time: '  0.07 [s] '} <<< TIME
 
 ITER STEP NUMBER     6
 Total charge density [el/Bohr^3]
)     Maximum=    5.7797E-01  at reduced coord.    0.2500    0.7500    0.0000
)     Minimum=    5.5891E-06  at reduced coord.    0.8333    0.3333    0.5000
   Integrated=    2.6000E+01
 ETOT  6  -88.893438214112    -3.292E-08 4.313E-08 8.142E-04 2.352E-05 1.203E-03
 scprqt: <Vxc>= -1.6492972E-01 hartree
 
 At SCF step    6, forces are converged : 
  for the second time, max diff in force=  2.352E-05 < toldff=  5.000E-05
 
 -------------------------------------------------------------------------------------------------
 Ekinetic   = :     2.534204E+01 Ha ,    6.895920E+02 eV
 Evext_l    = :    -5.874390E+02 Ha ,   -1.598503E+04 eV
 Evext_nl   = :     1.164243E+01 Ha ,    3.168067E+02 eV
 Epsp_core  = :     7.631172E-01 Ha ,    2.076547E+01 eV
 Ehartree   = :     2.736015E+02 Ha ,    7.445075E+03 eV
 Exc_ks     = :    -1.579733E+01 Ha ,   -4.298671E+02 eV
 Enn        = :     2.029938E+02 Ha ,    5.523743E+03 eV
 -------------------------------------------------------------------------------------------------
 Etot       = :    -8.889344E+01 Ha ,   -2.418913E+03 eV
 -------------------------------------------------------------------------------------------------
 
 Cartesian components of stress tensor (hartree/bohr^3)
  sigma(1 1)=  3.84777380E-03  sigma(3 2)= -3.68462881E-09
[...]
{SCF_istep: 5 , Vnl|psi>: 403 , wall_time: '  0.07 [s] '} <<< TIME
 
 ITER STEP NUMBER     6
 Total charge density [el/Bohr^3]
)     Maximum=    5.7797E-01  at reduced coord.    0.2500    0.7500    0.0000
)     Minimum=    5.5891E-06  at reduced coord.    0.8333    0.3333    0.5000
   Integrated=    2.6000E+01
 ETOT  6  -88.893438214112    -3.292E-08 4.313E-08 8.142E-04 2.352E-05 1.203E-03
 scprqt: <Vxc>= -1.6492972E-01 hartree
 
 At SCF step    6, forces are converged : 
  for the second time, max diff in force=  2.352E-05 < toldff=  5.000E-05
 
 -------------------------------------------------------------------------------------------------
 Ekinetic   = :     2.534204E+01 Ha ,    6.895920E+02 eV
 Evext_l    = :    -5.874390E+02 Ha ,   -1.598503E+04 eV
 Evext_nl   = :     1.164243E+01 Ha ,    3.168067E+02 eV
 Epsp_core  = :     7.631172E-01 Ha ,    2.076547E+01 eV
 Ehartree   = :     2.736015E+02 Ha ,    7.445075E+03 eV
 Exc_ks     = :    -1.579733E+01 Ha ,   -4.298671E+02 eV
 Enn        = :     2.029938E+02 Ha ,    5.523743E+03 eV
 -------------------------------------------------------------------------------------------------
 Etot       = :    -8.889344E+01 Ha ,   -2.418913E+03 eV
 -------------------------------------------------------------------------------------------------
 
 Cartesian components of stress tensor (hartree/bohr^3)
  sigma(1 1)=  3.84777380E-03  sigma(3 2)= -3.68462881E-09
  sigma(2 2)=  3.79010430E-03  sigma(3 1)=  9.34943053E-11
  sigma(3 3)=  3.87316315E-03  sigma(2 1)= -2.52661366E-10
 
 
 fftdatar_write: About to write data to: mos2_ecuto_DS4_TIM6_DEN with iomode: IO_MODE_FORTRAN
 IO operation , wall:  0.00 [s] , cpu:  0.00 [s] <<< TIME
- Creating HDf5 file with MPI-IO support: mos2_ecuto_DS4_GSR.nc
 Integrated electronic density in atomic spheres:
 ------------------------------------------------
 Atom  Sphere_radius  Integrated_density
    1        2.00000          9.77400117
    2        2.00000          3.92894986
    3        2.00000          3.92895302
 Write iteration in HIST netCDF file
 
---OUTPUT-----------------------------------------------------------------------
 
 Cartesian coordinates (xcart) [bohr]
  2.97631962784951E+00  1.74257045354136E+00  4.99983608637439E-06
  2.97631801287816E+00 -1.73046678627101E+00 -3.10556294900350E+00
  2.97631833715699E+00 -1.73048204639955E+00  3.10555794916742E+00
 Reduced coordinates (xred)
  3.30987090588802E-01  6.69013234831534E-01  1.32289965179757E-07
  6.67839020755654E-01  3.32160762057681E-01 -8.21696566227101E-02
  6.67840555322209E-01  3.32159336444119E-01  8.21695243327450E-02
 Cartesian forces (fcart) [Ha/bohr]; max,rms= 1.20272E-03 5.03616E-04 (free atoms)
 -4.18779001240905E-07 -1.20271876727836E-03 -3.87943857126492E-06
  2.32635090638538E-07  6.00310679528134E-04 -2.35583310744931E-04
  1.86143910602367E-07  6.02408087750222E-04  2.39462749316196E-04
 Gradient of E wrt nuclear positions in reduced coordinates (gred)
 -6.19893135783665E-03  6.20142419734768E-03  1.46621528980877E-04
  3.09399028122344E-03 -3.09537507354559E-03  8.90375877572829E-03
  3.10494107661321E-03 -3.10604912380209E-03 -9.05038030470917E-03
 Total energy (etotal) [Ha]= -8.88934382141124E+01
 
 Difference of energy with previous step (new-old):
           Absolute (Ha)=-7.95815E-06
           Relative     =-8.95247E-08
 fconv : at Broyd/MD step   6, gradients have not converged yet. 
  max grad (force/stress) = 1.2027E-03 > tolmxf= 5.0000E-04 ha/bohr (free atoms)
 
 EXIT:           1           1
 {mover_itime: 6 , wall_time: '  4.95 [s] '} <<< TIME
 
--- Iteration: ( 7/10) Internal Cycle: (1/1)
--------------------------------------------------------------------------------
 
 Cartesian coordinates (xcart) [bohr]
  2.97631911895524E+00  1.74016424670872E+00  4.90419221950184E-06
  2.97631830236360E+00 -1.72926543356885E+00 -3.10566465805474E+00
  2.97631855656582E+00 -1.72927719226907E+00  3.10565975386252E+00
 Reduced coordinates (xred)
  3.31220384706009E-01  6.68779769733219E-01  1.29759337455239E-07
  6.67722549386168E-01  3.32277330690085E-01 -8.21723477283011E-02
  6.67723732574489E-01  3.32276232910030E-01  8.21722179689637E-02
 
---SELF-CONSISTENT-FIELD CONVERGENCE--------------------------------------------
 
 getcut: wavevector=  0.0000  0.0000  0.0000  ngfft=  12  12  80
         ecut(hartree)=      5.000   => boxcut(ratio)=   2.00273
 
 ITER STEP NUMBER     1
 Max number of non-self-consistent loops: 2
 Total charge density [el/Bohr^3]
)     Maximum=    5.7802E-01  at reduced coord.    0.2500    0.7500    0.0000
)     Minimum=    5.6036E-06  at reduced coord.    0.8333    0.3333    0.5000
   Integrated=    2.6000E+01
 ETOT  1  -88.893438109951    -8.889E+01 4.125E-08 5.810E-02 2.969E-04 1.500E-03
 scprqt: <Vxc>= -1.6493556E-01 hartree
 
 Simple mixing update:
  residual square of the potential:   5.553970969808514E-002
{SCF_istep: 1 , Vnl|psi>: 1202 , wall_time: '  2.46 [s] '} <<< TIME
 
 ITER STEP NUMBER     2
 Max number of non-self-consistent loops: 2
 Total charge density [el/Bohr^3]
)     Maximum=    5.7796E-01  at reduced coord.    0.2500    0.7500    0.0000
)     Minimum=    5.5977E-06  at reduced coord.    0.8333    0.3333    0.5000
   Integrated=    2.6000E+01
 ETOT  2  -88.893440116799    -2.007E-06 1.295E-08 1.182E-03 1.349E-03 4.747E-04
 scprqt: <Vxc>= -1.6493748E-01 hartree
 
 Pulay update with  1 previous iterations:
 mixing of old trial potential: alpha(m:m-4)=   1.02     -0.195E-01
{SCF_istep: 2 , Vnl|psi>: 740 , wall_time: '  0.13 [s] '} <<< TIME
 
 ITER STEP NUMBER     3
 Total charge density [el/Bohr^3]
)     Maximum=    5.7801E-01  at reduced coord.    0.2500    0.7500    0.0000
)     Minimum=    5.6015E-06  at reduced coord.    0.8333    0.3333    0.5000
   Integrated=    2.6000E+01
 ETOT  3  -88.893440276408    -1.596E-07 1.774E-08 4.809E-04 4.461E-04 3.020E-04
 scprqt: <Vxc>= -1.6493880E-01 hartree
 
 Pulay update with  2 previous iterations:
 mixing of old trial potential: alpha(m:m-4)=  0.566      0.444     -0.996E-02
{SCF_istep: 3 , Vnl|psi>: 399 , wall_time: '  0.07 [s] '} <<< TIME
 
 ITER STEP NUMBER     4
 Total charge density [el/Bohr^3]
)     Maximum=    5.7797E-01  at reduced coord.    0.2500    0.7500    0.0000
)     Minimum=    5.5994E-06  at reduced coord.    0.8333    0.3333    0.5000
   Integrated=    2.6000E+01
 ETOT  4  -88.893440955709    -6.793E-07 5.513E-09 9.115E-05 2.618E-04 2.910E-04
 scprqt: <Vxc>= -1.6493739E-01 hartree
 
 Pulay update with  3 previous iterations:
 mixing of old trial potential: alpha(m:m-4)=  0.874      0.124      0.297E-02 -0.339E-03
{SCF_istep: 4 , Vnl|psi>: 400 , wall_time: '  0.07 [s] '} <<< TIME
 
 ITER STEP NUMBER     5
 Total charge density [el/Bohr^3]
)     Maximum=    5.7798E-01  at reduced coord.    0.2500    0.7500    0.0000
)     Minimum=    5.5996E-06  at reduced coord.    0.8333    0.3333    0.5000
   Integrated=    2.6000E+01
 ETOT  5  -88.893440976946    -2.124E-08 2.698E-10 3.579E-05 3.753E-05 2.773E-04
 scprqt: <Vxc>= -1.6493727E-01 hartree
 
 Pulay update with  4 previous iterations:
 mixing of old trial potential: alpha(m:m-4)=   1.07     -0.697E-01  0.592E-02 -0.107E-01  0.207E-03
{SCF_istep: 5 , Vnl|psi>: 402 , wall_time: '  0.07 [s] '} <<< TIME
 
 ITER STEP NUMBER     6
 Total charge density [el/Bohr^3]
)     Maximum=    5.7798E-01  at reduced coord.    0.2500    0.7500    0.0000
)     Minimum=    5.5996E-06  at reduced coord.    0.8333    0.3333    0.5000
   Integrated=    2.6000E+01
 ETOT  6  -88.893440978630    -1.685E-09 9.062E-11 2.558E-05 4.770E-06 2.788E-04
 scprqt: <Vxc>= -1.6493704E-01 hartree
 
 At SCF step    6, forces are converged : 
  for the second time, max diff in force=  4.770E-06 < toldff=  5.000E-05
 
 -------------------------------------------------------------------------------------------------
 Ekinetic   = :     2.534171E+01 Ha ,    6.895831E+02 eV
 Evext_l    = :    -5.874270E+02 Ha ,   -1.598470E+04 eV
 Evext_nl   = :     1.164233E+01 Ha ,    3.168039E+02 eV
 Epsp_core  = :     7.631172E-01 Ha ,    2.076547E+01 eV
 Ehartree   = :     2.735936E+02 Ha ,    7.444862E+03 eV
 Exc_ks     = :    -1.579720E+01 Ha ,   -4.298638E+02 eV
 Enn        = :     2.029900E+02 Ha ,    5.523638E+03 eV
 -------------------------------------------------------------------------------------------------
 Etot       = :    -8.889344E+01 Ha ,   -2.418914E+03 eV
 -------------------------------------------------------------------------------------------------
 
 Cartesian components of stress tensor (hartree/bohr^3)
  sigma(1 1)=  3.84796534E-03  sigma(3 2)= -2.88014846E-09
  sigma(2 2)=  3.78963279E-03  sigma(3 1)=  7.30493604E-11
  sigma(3 3)=  3.87397035E-03  sigma(2 1)= -1.09205187E-10
 
 
 fftdatar_write: About to write data to: mos2_ecuto_DS4_TIM7_DEN with iomode: IO_MODE_FORTRAN
 IO operation , wall:  0.01 [s] , cpu:  0.00 [s] <<< TIME
- Creating HDf5 file with MPI-IO support: mos2_ecuto_DS4_GSR.nc
 Integrated electronic density in atomic spheres:
 ------------------------------------------------
 Atom  Sphere_radius  Integrated_density
    1        2.00000          9.77400004
    2        2.00000          3.92893903
    3        2.00000          3.92894340
 Write iteration in HIST netCDF file
 
---OUTPUT-----------------------------------------------------------------------
 
 Cartesian coordinates (xcart) [bohr]
  2.97631911895524E+00  1.74016424670872E+00  4.90419221950184E-06
  2.97631830236360E+00 -1.72926543356885E+00 -3.10566465805474E+00
  2.97631855656582E+00 -1.72927719226907E+00  3.10565975386252E+00
 Reduced coordinates (xred)
  3.31220384706009E-01  6.68779769733219E-01  1.29759337455239E-07
  6.67722549386168E-01  3.32277330690085E-01 -8.21723477283011E-02
  6.67723732574489E-01  3.32276232910030E-01  8.21722179689637E-02
 Cartesian forces (fcart) [Ha/bohr]; max,rms= 2.78841E-04 1.62780E-04 (free atoms)
 -1.94985340674306E-07 -2.78840801654226E-04 -4.56849918781733E-06
  1.16116958886298E-07  1.38603186728153E-04 -2.44511383769299E-04
  7.88683817880081E-08  1.40237614926073E-04  2.49079882957116E-04
 Gradient of E wrt nuclear positions in reduced coordinates (gred)
 -1.43688167583729E-03  1.43804235285277E-03  1.72664246065705E-04
  7.14172556984804E-04 -7.14863759127592E-04  9.24119103393748E-03
  7.22709118852488E-04 -7.23178593725176E-04 -9.41385528000318E-03
 Total energy (etotal) [Ha]= -8.88934409786304E+01
 
 Difference of energy with previous step (new-old):
           Absolute (Ha)=-2.76452E-06
           Relative     =-3.10992E-08
 
 At Broyd/MD step   7, gradients are converged : 
  max grad (force/stress) = 2.7884E-04 < tolmxf= 5.0000E-04 ha/bohr (free atoms)
 
================================================================================
 
 ----iterations are completed or convergence reached----
 
 
 === Gap info ===
  >>>> For spin  1
   Minimum direct gap =   2.9337 [eV], located at k-point      :  -0.1667  0.1667  0.5000
   Fundamental gap    =   2.4155 [eV], Top of valence bands at :  -0.1667  0.1667  0.5000
                                       Bottom of conduction at :   0.1667  0.1667  0.5000
 Mean square residual over all n,k,spin=   44.683E-13; max=  90.623E-12
   0.1667  0.1667  0.5000    1  4.23689E-11 kpt; spin; max resid(k); each band:
  2.87E-13 1.48E-13 1.21E-13 2.53E-13 1.04E-12 6.75E-13 2.65E-12 6.98E-13
  2.75E-12 6.77E-13 1.24E-12 7.73E-13 2.02E-12 4.24E-11
   0.5000  0.1667  0.5000    1  9.06234E-11 kpt; spin; max resid(k); each band:
  3.01E-13 2.96E-13 1.16E-13 2.89E-13 7.98E-13 9.13E-13 1.91E-12 3.66E-13
  1.87E-12 8.33E-13 1.38E-12 5.70E-13 2.21E-12 9.06E-11
  -0.1667  0.1667  0.5000    1  3.45774E-12 kpt; spin; max resid(k); each band:
  3.20E-13 1.61E-13 2.69E-13 9.14E-14 1.04E-12 8.72E-13 3.46E-12 2.01E-12
  1.64E-12 1.37E-13 3.20E-13 9.64E-13 2.64E-12 2.84E-12
   0.1667  0.5000  0.5000    1  9.05723E-11 kpt; spin; max resid(k); each band:
  3.01E-13 2.96E-13 1.16E-13 2.89E-13 7.98E-13 9.13E-13 1.91E-12 3.66E-13
  1.87E-12 8.33E-13 1.38E-12 5.70E-13 2.21E-12 9.06E-11
   0.5000  0.5000  0.5000    1  2.63081E-11 kpt; spin; max resid(k); each band:
  2.94E-13 3.12E-13 1.35E-13 1.57E-13 1.04E-12 6.94E-13 1.16E-12 8.24E-13
  1.58E-12 7.46E-14 7.11E-13 3.84E-13 1.71E-12 2.63E-11
 
   outwf: writing wavefunctions to: mos2_ecuto_DS4_WFK with iomode: IO_MODE_FORTRAN_MASTER
 WFK output , wall:  0.01 [s] , cpu:  0.00 [s] <<< TIME
 prteigrs : about to open file mos2_ecuto_DS4_EIG
 Fermi (or HOMO) energy (hartree) =  -0.07960   Average Vxc (hartree)=  -0.16494
 Eigenvalues (hartree) for nkpt=   5  k points:
 kpt#   1, nband= 14, wtk=  0.22222, kpt=  0.1667  0.1667  0.5000 (reduced coord)
  -2.42609   -1.62247   -1.60328   -1.59687   -0.51163   -0.48498   -0.26454   -0.22029
  -0.21021   -0.19798   -0.15147   -0.12032   -0.10240    0.00917
 kpt#   2, nband= 14, wtk=  0.22222, kpt=  0.5000  0.1667  0.5000 (reduced coord)
  -2.42618   -1.62983   -1.60672   -1.59996   -0.47545   -0.47458   -0.27917   -0.26444
  -0.21429   -0.20071   -0.16718   -0.14529   -0.09239    0.02665
 kpt#   3, nband= 14, wtk=  0.22222, kpt= -0.1667  0.1667  0.5000 (reduced coord)
  -2.42476   -1.60206   -1.59470   -1.55891   -0.53638   -0.49253   -0.26728   -0.19381
  -0.18968   -0.14980   -0.14979   -0.12173   -0.07960    0.02822
 kpt#   4, nband= 14, wtk=  0.22222, kpt=  0.1667  0.5000  0.5000 (reduced coord)
  -2.42618   -1.62983   -1.60672   -1.59996   -0.47545   -0.47458   -0.27917   -0.26444
  -0.21429   -0.20071   -0.16718   -0.14529   -0.09239    0.02665
 kpt#   5, nband= 14, wtk=  0.11111, kpt=  0.5000  0.5000  0.5000 (reduced coord)
  -2.42592   -1.64298   -1.60644   -1.58120   -0.47578   -0.47250   -0.29218   -0.25809
  -0.22191   -0.19752   -0.15213   -0.11362   -0.09902    0.03097
 Total charge density [el/Bohr^3]
)     Maximum=    5.7798E-01  at reduced coord.    0.2500    0.7500    0.0000
)Next maximum=    5.7343E-01  at reduced coord.    0.5000    0.7500    0.0000
)     Minimum=    5.5996E-06  at reduced coord.    0.8333    0.3333    0.5000
)Next minimum=    5.5996E-06  at reduced coord.    0.6667    0.1667    0.5000
   Integrated=    2.6000E+01
 
 Cartesian components of stress tensor (hartree/bohr^3)
  sigma(1 1)=  3.84796534E-03  sigma(3 2)= -2.88014846E-09
  sigma(2 2)=  3.78963279E-03  sigma(3 1)=  7.30493604E-11
  sigma(3 3)=  3.87397035E-03  sigma(2 1)= -1.09205187E-10
 
-Cartesian components of stress tensor (GPa)         [Pressure= -1.1289E+02 GPa]
- sigma(1 1)=  1.13211030E+02  sigma(3 2)= -8.47368788E-05
- sigma(2 2)=  1.11494827E+02  sigma(3 1)=  2.14918602E-06
- sigma(3 3)=  1.13976123E+02  sigma(2 1)= -3.21292697E-06
 dataset: 4 , wall: 36.13 [s] , cpu: 33.37 [s] <<< TIME
 
== END DATASET(S) ==============================================================
================================================================================
  
 -outvars: echo values of variables after computation  --------
 
 These variables are accessible in NetCDF format (mos2_ecuto_OUT.nc)

            acell      5.9526373186E+00  5.9526373186E+00  3.7794522658E+01 Bohr
              amu      9.59400000E+01  3.20660000E+01
      chksymbreak           0
             ecut      5.00000000E+00 Hartree
           etotal1    -8.8893440979E+01
           etotal2    -8.8893440979E+01
           etotal3    -8.8893440979E+01
           etotal4    -8.8893440979E+01
            fcart1    -1.9498534067E-07 -2.7884080165E-04 -4.5684991878E-06
                       1.1611695889E-07  1.3860318673E-04 -2.4451138377E-04
                       7.8868381788E-08  1.4023761493E-04  2.4907988296E-04
            fcart2    -1.9498534067E-07 -2.7884080165E-04 -4.5684991878E-06
                       1.1611695889E-07  1.3860318673E-04 -2.4451138377E-04
                       7.8868381788E-08  1.4023761493E-04  2.4907988296E-04
            fcart3    -1.9498534067E-07 -2.7884080165E-04 -4.5684991878E-06
                       1.1611695889E-07  1.3860318673E-04 -2.4451138377E-04
                       7.8868381788E-08  1.4023761493E-04  2.4907988296E-04
            fcart4    -1.9498534067E-07 -2.7884080165E-04 -4.5684991878E-06
                       1.1611695889E-07  1.3860318673E-04 -2.4451138377E-04
                       7.8868381788E-08  1.4023761493E-04  2.4907988296E-04
-          fftalg         512
           ionmov           2
           istwfk        0    0    0    0    9
              ixc          11
           jdtset        1    2    3    4
              kpt      1.66666667E-01  1.66666667E-01  5.00000000E-01
                       5.00000000E-01  1.66666667E-01  5.00000000E-01
                      -1.66666667E-01  1.66666667E-01  5.00000000E-01
                       1.66666667E-01  5.00000000E-01  5.00000000E-01
                       5.00000000E-01  5.00000000E-01  5.00000000E-01
         kptrlatt        3    0    0      0    3    0      0    0    1
          kptrlen      1.78579120E+01
P           mkmem           5
            natom           3
            nband          14
           ndtset           4
            ngfft          12      12      80
             nkpt           5
            nstep          10
             nsym           1
            ntime          10
           ntypat           2
              occ      2.000000  2.000000  2.000000  2.000000  2.000000  2.000000
                       2.000000  2.000000  2.000000  2.000000  2.000000  2.000000
                       2.000000  0.000000
        optforces           1
            rprim      5.0000000000E-01 -8.6602540378E-01  0.0000000000E+00
                       5.0000000000E-01  8.6602540378E-01  0.0000000000E+00
                       0.0000000000E+00  0.0000000000E+00  1.0000000000E+00
           shiftk      5.00000000E-01  5.00000000E-01  5.00000000E-01
          spgroup           1
           strten1     3.8479653446E-03  3.7896327903E-03  3.8739703481E-03
                      -2.8801484551E-09  7.3049360431E-11 -1.0920518657E-10
           strten2     3.8479653446E-03  3.7896327903E-03  3.8739703481E-03
                      -2.8801484551E-09  7.3049360431E-11 -1.0920518657E-10
           strten3     3.8479653446E-03  3.7896327903E-03  3.8739703481E-03
                      -2.8801484551E-09  7.3049360431E-11 -1.0920518657E-10
           strten4     3.8479653446E-03  3.7896327903E-03  3.8739703481E-03
                      -2.8801484551E-09  7.3049360431E-11 -1.0920518657E-10
           toldff      5.00000000E-05
           tolmxf      5.00000000E-04
            typat      1  2  2
              wtk        0.22222    0.22222    0.22222    0.22222    0.11111
           xangst      1.5750002432E+00  9.2085525856E-01  2.5951867491E-06
                       1.5749998111E+00 -9.1508785505E-01 -1.6434469546E+00
                       1.5749999456E+00 -9.1509407748E-01  1.6434443594E+00
            xcart      2.9763191190E+00  1.7401642467E+00  4.9041922195E-06
                       2.9763183024E+00 -1.7292654336E+00 -3.1056646581E+00
                       2.9763185566E+00 -1.7292771923E+00  3.1056597539E+00
             xred      3.3122038471E-01  6.6877976973E-01  1.2975933746E-07
                       6.6772254939E-01  3.3227733069E-01 -8.2172347728E-02
                       6.6772373257E-01  3.3227623291E-01  8.2172217969E-02
            znucl       42.00000   16.00000
 
================================================================================
  
 Proc.   0 individual time (sec): cpu=        133.7  wall=        145.8
 
 Calculation completed.
.Delivered  16 WARNINGs and  14 COMMENTs to log file.

--- !FinalSummary
program: abinit
version: 9.10.3
start_datetime: Wed May 07 06:45:11 2025
end_datetime: Wed May 07 06:47:37 2025
overall_cpu_time:         133.7
overall_wall_time:         145.8
exit_requested_by_user: no 
timelimit: 0
pseudos: 
    Mo  : 228091cb5782e08cb8d68936b3c7e57b
    S   : ee4b2e2802f5df21cf2ecc26b1029f69
usepaw: 0
mpi_procs: 1
omp_threads: 1
num_warnings: 16
num_comments: 14
...
