  ABINIT 9.10.3
  
-instrng: 59 lines of input have been read from file mos2.abi
 
 
--- !COMMENT
src_file: m_dtfil.F90
src_line: 1441
message: |
    Output file: mos2.abo already exists.
...
 
 
--- !COMMENT
src_file: m_dtfil.F90
src_line: 1465
message: |
    Renaming old: mos2.abo to: mos2.abo0006
...
 

.Version 9.10.3 of ABINIT 
.(MPI version, prepared for a x86_64_linux_intel2021.6 computer) 

.Copyright (C) 1998-2022 ABINIT group . 
 ABINIT comes with ABSOLUTELY NO WARRANTY.
 It is free software, and you are welcome to redistribute it
 under certain conditions (GNU General Public License,
 see ~abinit/COPYING or http://www.gnu.org/copyleft/gpl.txt).

 ABINIT is a project of the Universite Catholique de Louvain,
 Corning Inc. and other collaborators, see ~abinit/doc/developers/contributors.txt .
 Please read https://docs.abinit.org/theory/acknowledgments for suggested
 acknowledgments of the ABINIT effort.
 For more information, see https://www.abinit.org .

.Starting date : Wed  7 May 2025.
- ( at 10h34 )
  
 
 ++++++++++++++++++++++++++++++++++++++++++++++++++++++++++++++++++++++++++++++
 
 === Build Information === 
  Version       : 9.10.3
  Build target  : x86_64_linux_intel2021.6
  Build date    : 20240126
 
 === Compiler Suite === 
  C compiler       : intel2021.6
  C++ compiler     : gnu2021.6
  Fortran compiler : intel2021.6
  CFLAGS           : -g -O2
  CXXFLAGS         : -g -O2 -mtune=native -march=native
  FCFLAGS          : -g -extend-source -nofpscomp     -I/shared/ucl/apps/NetCDF/4.9.2-in ...
  FC_LDFLAGS       :   -static-intel -static-libgcc
 
 === Optimizations === 
  Debug level        : basic
  Optimization level : standard
  Architecture       : intel_xeon
 
 === Multicore === 
  Parallel build : /shared/ucl/apps/intel/2020/impi/2019.6.166/intel64
  Parallel I/O   : 
  openMP support : 
  GPU support    : 
 
 === Connectors / Fallbacks === 
  LINALG flavor  : mkl
  FFT flavor     : dfti
  HDF5           : yes
  NetCDF         : yes
  NetCDF Fortran : yes
  LibXC          : yes
  Wannier90      : no
 
 === Experimental features === 
  Exports             : 
  GW double-precision : 
 
 ++++++++++++++++++++++++++++++++++++++++++++++++++++++++++++++++++++++++++++++
 

 ++++++++++++++++++++++++++++++++++++++++++++++++++++++++++++++++++++++++++++++
 Default optimizations:
   -O3


 Optimizations for 43_ptgroups:
   -O0


 ++++++++++++++++++++++++++++++++++++++++++++++++++++++++++++++++++++++++++++++


 ++++++++++++++++++++++++++++++++++++++++++++++++++++++++++++++++++++++++++++++
 CPP options activated during the build:

                  CC_INTEL                   CXX_GNU                  FC_INTEL
 
                 HAVE_DFTI HAVE_FC_ALLOCATABLE_DT...             HAVE_FC_ASYNC
 
  HAVE_FC_COMMAND_ARGUMENT      HAVE_FC_COMMAND_LINE        HAVE_FC_CONTIGUOUS
 
           HAVE_FC_CPUTIME              HAVE_FC_EXIT             HAVE_FC_FLUSH
 
             HAVE_FC_GAMMA   HAVE_FC_IEEE_ARITHMETIC   HAVE_FC_IEEE_EXCEPTIONS
 
             HAVE_FC_IOMSG     HAVE_FC_ISO_C_BINDING  HAVE_FC_ISO_FORTRAN_2008
 
        HAVE_FC_LONG_LINES        HAVE_FC_MOVE_ALLOC  HAVE_FC_ON_THE_FLY_SHAPE
 
           HAVE_FC_PRIVATE         HAVE_FC_PROTECTED           HAVE_FC_SHIFTLR
 
         HAVE_FC_STREAM_IO                 HAVE_HDF5             HAVE_HDF5_MPI
 
        HAVE_LIBPAW_ABINIT      HAVE_LIBTETRA_ABINIT                HAVE_LIBXC
 
         HAVE_LINALG_AXPBY        HAVE_LINALG_GEMM3M         HAVE_LINALG_GEMMT
 
  HAVE_LINALG_MKL_IMATCOPY   HAVE_LINALG_MKL_OMATADD  HAVE_LINALG_MKL_OMATCOPY
 
   HAVE_LINALG_MKL_THREADS     HAVE_LINALG_SCALAPACK                  HAVE_MPI
 
                 HAVE_MPI2       HAVE_MPI_IALLGATHER       HAVE_MPI_IALLREDUCE
 
        HAVE_MPI_IALLTOALL       HAVE_MPI_IALLTOALLV           HAVE_MPI_IBCAST
 
         HAVE_MPI_IGATHERV        HAVE_MPI_INTEGER16               HAVE_MPI_IO
 
 HAVE_MPI_TYPE_CREATE_S...               HAVE_NETCDF       HAVE_NETCDF_FORTRAN
 
   HAVE_NETCDF_FORTRAN_MPI           HAVE_NETCDF_MPI             HAVE_OS_LINUX
 
         HAVE_TIMER_ABINIT                                                      
 ++++++++++++++++++++++++++++++++++++++++++++++++++++++++++++++++++++++++++++++

- input  file    -> mos2.abi
- output file    -> mos2.abo
- root for input  files -> mos2i
- root for output files -> mos2o
 
 Netcdf library supports MPI-IO
-instrng: 59 lines of input have been read from file mos2.abi
 
 For atom type 1, psp file is ./persudo/Mo.psp8
 For atom type 2, psp file is ./persudo/S.psp8
  read the values zionpsp= 14.0 , pspcod=   8 , lmax=   2
  read the values zionpsp=  6.0 , pspcod=   8 , lmax=   2
 
 inpspheads: deduce mpsang = 3, n1xccc = 2501.

======================================================= 
 invars1m : enter jdtset= 1
 
 symlatt: the Bravais lattice is hP (primitive hexagonal)
  xred   is defined in input file
 ingeo: takes atomic coordinates from input array xred
 
 symlatt: the Bravais lattice is hP (primitive hexagonal)
 
 symlatt: the Bravais lattice is hP (primitive hexagonal)
 
--- !COMMENT
src_file: m_symfind.F90
src_line: 995
message: |
    The Bravais lattice determined only from the primitive
    vectors, bravais(1)=  6, is more symmetric
    than the real one, iholohedry=  1, obtained by taking into
    account the atomic positions. Start deforming the primitive vector set.
...
 
 
 symlatt: the Bravais lattice is oC (one-face-centered orthorhombic)
 
--- !COMMENT
src_file: m_symfind.F90
src_line: 1004
message: |
    The Bravais lattice determined from modified primitive
    vectors, bravais(1)=  3, has a lower symmetry than before,
    but is still more symmetric than the real one, iholohedry=  1
    obtained by taking into account the atomic positions.
...
 
 
 symlatt: the Bravais lattice is aP (primitive triclinic)
 symspgr: spgroup=   1  P1   (=C1^1)

======================================================= 
 invars1m : enter jdtset= 2
 
 symlatt: the Bravais lattice is hP (primitive hexagonal)
  xred   is defined in input file
 ingeo: takes atomic coordinates from input array xred
 
 symlatt: the Bravais lattice is hP (primitive hexagonal)
 
 symlatt: the Bravais lattice is hP (primitive hexagonal)
 
--- !COMMENT
src_file: m_symfind.F90
src_line: 995
message: |
    The Bravais lattice determined only from the primitive
    vectors, bravais(1)=  6, is more symmetric
    than the real one, iholohedry=  1, obtained by taking into
    account the atomic positions. Start deforming the primitive vector set.
...
 
 
 symlatt: the Bravais lattice is oC (one-face-centered orthorhombic)
 
--- !COMMENT
src_file: m_symfind.F90
src_line: 1004
message: |
    The Bravais lattice determined from modified primitive
    vectors, bravais(1)=  3, has a lower symmetry than before,
    but is still more symmetric than the real one, iholohedry=  1
    obtained by taking into account the atomic positions.
...
 
 
 symlatt: the Bravais lattice is aP (primitive triclinic)
 symspgr: spgroup=   1  P1   (=C1^1)
 Real(R)+Recip(G) space primitive vectors, cartesian coordinates (Bohr,Bohr^-1):
 R(1)=  2.9763187 -5.1551351  0.0000000  G(1)=  0.1679928 -0.0969907  0.0000000
 R(2)=  2.9763187  5.1551351  0.0000000  G(2)=  0.1679928  0.0969907  0.0000000
 R(3)=  0.0000000  0.0000000 37.7945227  G(3)=  0.0000000  0.0000000  0.0264589
 Unit cell volume ucvol=  1.1597873E+03 bohr^3
 Unit cell volume ucvol=  1.1597873E+03 bohr^3
 Angles (23,13,12)=  9.00000000E+01  9.00000000E+01  1.20000000E+02 degrees
 Angles (23,13,12)=  9.00000000E+01  9.00000000E+01  1.20000000E+02 degrees
  9.699066788217228E-002  5.599758821079725E-002  0.225547665608976     
 
 mknormpath : total number of points on the path:       68
 
 Number of divisions for each segment of the normalized path:
 0.00000 0.00000 0.00000 ==>  0.50000 0.00000 0.00000 ( ndiv:    17 )
 0.50000 0.00000 0.00000 ==>  0.33333 0.33333 0.00000 ( ndiv:    10 )
 0.33333 0.33333 0.00000 ==>  1.00000 1.00000 1.00000 ( ndiv:    40 )
 
 
 invars2: take the default value of fband=  1.25000000E-01
 
--- !WARNING
src_file: m_invars2.F90
src_line: 2098
message: |
    nbdbuf is not specified in input, using `nbdbuf = 2*nspinor` that may be too small!
    As a consequence, the NSCF cycle may have problems to converge the last bands within nstep iterations.
    To avoid this problem specify nbdbuf in the input file and adjust nband accordingly.
...
 
 Real(R)+Recip(G) space primitive vectors, cartesian coordinates (Bohr,Bohr^-1):
 R(1)=  2.9763187 -5.1551351  0.0000000  G(1)=  0.1679928 -0.0969907  0.0000000
 R(2)=  2.9763187  5.1551351  0.0000000  G(2)=  0.1679928  0.0969907  0.0000000
 R(3)=  0.0000000  0.0000000 37.7945227  G(3)=  0.0000000  0.0000000  0.0264589
 Unit cell volume ucvol=  1.1597873E+03 bohr^3
 Unit cell volume ucvol=  1.1597873E+03 bohr^3
 Angles (23,13,12)=  9.00000000E+01  9.00000000E+01  1.20000000E+02 degrees
 Angles (23,13,12)=  9.00000000E+01  9.00000000E+01  1.20000000E+02 degrees
  9.699066788217228E-002  5.599758821079725E-002  0.225547665608976     
 
 mknormpath : total number of points on the path:       68
 
 Number of divisions for each segment of the normalized path:
 0.00000 0.00000 0.00000 ==>  0.50000 0.00000 0.00000 ( ndiv:    17 )
 0.50000 0.00000 0.00000 ==>  0.33333 0.33333 0.00000 ( ndiv:    10 )
 0.33333 0.33333 0.00000 ==>  1.00000 1.00000 1.00000 ( ndiv:    40 )
 
 
 LMac pawujat is:            0
 LMac pawujat is:            0
 For input ecut=  3.000000E+01 best grid ngfft=      30      30     192
       max ecut=  3.138169E+01
 
 ==== FFT mesh ====
  FFT mesh divisions ........................    30   30  192
  Augmented FFT divisions ...................    31   31  192
  FFT algorithm .............................   512
  FFT cache size ............................    16
 getmpw: optimal value of mpw= 9128
 For input ecut=  3.000000E+01 best grid ngfft=      30      30     192
       max ecut=  3.138169E+01
 
 ==== FFT mesh ====
  FFT mesh divisions ........................    30   30  192
  Augmented FFT divisions ...................    31   31  192
  FFT algorithm .............................   512
  FFT cache size ............................    16
 getmpw: optimal value of mpw= 9191
 
 DATASET    1 : space group P1 (#  1); Bravais aP (primitive triclinic)
 
 getdim_nloc: deduce lmnmax  =  18, lnmax  =   6,
                      lmnmaxso=  18, lnmaxso=   6.
memory: analysis of memory needs
================================================================================
 Values of the parameters that define the memory need for DATASET  1.
     intxc =       0    ionmov =       2      iscf =       7    lmnmax =       6
     lnmax =       6     mgfft =     192  mpssoang =       3    mqgrid =    9319
     natom =       3  nloc_mem =       1    nspden =       1   nspinor =       1
    nsppol =       1      nsym =       1    n1xccc =    2501    ntypat =       2
    occopt =       1   xclevel =       2
-    mband =          14        mffmem =           1         mkmem =          10
       mpw =        9128          nfft =      172800          nkpt =          10
================================================================================
P This job should need less than                      75.052 Mbytes of memory.
  Rough estimation (10% accuracy) of disk space for files :
_ WF disk file :     19.502 Mbytes ; DEN or POT disk file :      1.320 Mbytes.
================================================================================
 
 Biggest array : f_fftgr(disk), with     21.0958 MBytes.
 memana : allocated an array of     21.096 Mbytes, for testing purposes.
 memana: allocated      75.052Mbytes, for testing purposes. 
 The job will continue.
 
 DATASET    2 : space group P1 (#  1); Bravais aP (primitive triclinic)
 
 getdim_nloc: deduce lmnmax  =  18, lnmax  =   6,
                      lmnmaxso=  18, lnmaxso=   6.
memory: analysis of memory needs
================================================================================
 Values of the parameters that define the memory need for DATASET  2.
     intxc =       0    ionmov =       2      iscf =      -2    lmnmax =       6
     lnmax =       6     mgfft =     192  mpssoang =       3    mqgrid =    9319
     natom =       3  nloc_mem =       1    nspden =       1   nspinor =       1
    nsppol =       1      nsym =       1    n1xccc =    2501    ntypat =       2
    occopt =       1   xclevel =       2
-    mband =           8        mffmem =           1         mkmem =          68
       mpw =        9191          nfft =      172800          nkpt =          68
================================================================================
P This job should need less than                     116.945 Mbytes of memory.
  Rough estimation (10% accuracy) of disk space for files :
_ WF disk file :     76.294 Mbytes ; DEN or POT disk file :      1.320 Mbytes.
================================================================================
 
 Biggest array : cg(disk), with     76.2945 MBytes.
 memana : allocated an array of     76.294 Mbytes, for testing purposes.
 memana: allocated     116.945Mbytes, for testing purposes. 
 The job will continue.
--------------------------------------------------------------------------------
------------- Echo of variables that govern the present computation ------------
--------------------------------------------------------------------------------
-
- outvars: echo of selected default values                                      
-   iomode0 =  0 , fftalg0 =512 , wfoptalg0 =  0
-
- outvars: echo of global parameters not present in the input file              
-  max_nthreads =    0
-
 -outvars: echo values of preprocessed input variables --------
 
 These variables are accessible in NetCDF format (mos2o_OUT.nc)

            acell      5.9526373186E+00  5.9526373186E+00  3.7794522658E+01 Bohr
              amu      9.59400000E+01  3.20660000E+01
      chksymbreak           0
             ecut      3.00000000E+01 Hartree
           enunit1          0
           enunit2          1
-          fftalg         512
           getden1          0
           getden2         -1
           ionmov           2
             iscf1          7
             iscf2         -2
           istwfk1       4    0    5    0    0    0    0    8    0    9
           istwfk2       2    0    0    0    0    0    0    0    0    0
                         0    0    0    0    0    0    0    3    0    0
                         0    0    0    0    0    0    0    0    0    0
                         0    0    0    0    0    0    0    0    0    0
                         0    0    0    0    0    0    0    0    0    0
                       outvar_i_n : Printing only first  50 k-points.
              ixc          11
           jdtset        1    2
              kpt1     0.00000000E+00  0.00000000E+00  5.00000000E-01
                       2.50000000E-01  0.00000000E+00  5.00000000E-01
                       5.00000000E-01  0.00000000E+00  5.00000000E-01
                       0.00000000E+00  2.50000000E-01  5.00000000E-01
                       2.50000000E-01  2.50000000E-01  5.00000000E-01
                       5.00000000E-01  2.50000000E-01  5.00000000E-01
                      -2.50000000E-01  2.50000000E-01  5.00000000E-01
                       0.00000000E+00  5.00000000E-01  5.00000000E-01
                       2.50000000E-01  5.00000000E-01  5.00000000E-01
                       5.00000000E-01  5.00000000E-01  5.00000000E-01
              kpt2     0.00000000E+00  0.00000000E+00  0.00000000E+00
                       2.94117647E-02  0.00000000E+00  0.00000000E+00
                       5.88235294E-02  0.00000000E+00  0.00000000E+00
                       8.82352941E-02  0.00000000E+00  0.00000000E+00
                       1.17647059E-01  0.00000000E+00  0.00000000E+00
                       1.47058824E-01  0.00000000E+00  0.00000000E+00
                       1.76470588E-01  0.00000000E+00  0.00000000E+00
                       2.05882353E-01  0.00000000E+00  0.00000000E+00
                       2.35294118E-01  0.00000000E+00  0.00000000E+00
                       2.64705882E-01  0.00000000E+00  0.00000000E+00
                       2.94117647E-01  0.00000000E+00  0.00000000E+00
                       3.23529412E-01  0.00000000E+00  0.00000000E+00
                       3.52941176E-01  0.00000000E+00  0.00000000E+00
                       3.82352941E-01  0.00000000E+00  0.00000000E+00
                       4.11764706E-01  0.00000000E+00  0.00000000E+00
                       4.41176471E-01  0.00000000E+00  0.00000000E+00
                       4.70588235E-01  0.00000000E+00  0.00000000E+00
                       5.00000000E-01  0.00000000E+00  0.00000000E+00
                       4.83333333E-01  3.33333333E-02  0.00000000E+00
                       4.66666667E-01  6.66666667E-02  0.00000000E+00
                       4.50000000E-01  1.00000000E-01  0.00000000E+00
                       4.33333333E-01  1.33333333E-01  0.00000000E+00
                       4.16666667E-01  1.66666667E-01  0.00000000E+00
                       4.00000000E-01  2.00000000E-01  0.00000000E+00
                       3.83333333E-01  2.33333333E-01  0.00000000E+00
                       3.66666667E-01  2.66666667E-01  0.00000000E+00
                       3.50000000E-01  3.00000000E-01  0.00000000E+00
                       3.33333333E-01  3.33333333E-01  0.00000000E+00
                       3.50000000E-01  3.50000000E-01  2.50000000E-02
                       3.66666667E-01  3.66666667E-01  5.00000000E-02
                       3.83333333E-01  3.83333333E-01  7.50000000E-02
                       4.00000000E-01  4.00000000E-01  1.00000000E-01
                       4.16666667E-01  4.16666667E-01  1.25000000E-01
                       4.33333333E-01  4.33333333E-01  1.50000000E-01
                       4.50000000E-01  4.50000000E-01  1.75000000E-01
                       4.66666667E-01  4.66666667E-01  2.00000000E-01
                       4.83333333E-01  4.83333333E-01  2.25000000E-01
                       5.00000000E-01  5.00000000E-01  2.50000000E-01
                       5.16666667E-01  5.16666667E-01  2.75000000E-01
                       5.33333333E-01  5.33333333E-01  3.00000000E-01
                       5.50000000E-01  5.50000000E-01  3.25000000E-01
                       5.66666667E-01  5.66666667E-01  3.50000000E-01
                       5.83333333E-01  5.83333333E-01  3.75000000E-01
                       6.00000000E-01  6.00000000E-01  4.00000000E-01
                       6.16666667E-01  6.16666667E-01  4.25000000E-01
                       6.33333333E-01  6.33333333E-01  4.50000000E-01
                       6.50000000E-01  6.50000000E-01  4.75000000E-01
                       6.66666667E-01  6.66666667E-01  5.00000000E-01
                       6.83333333E-01  6.83333333E-01  5.25000000E-01
                       7.00000000E-01  7.00000000E-01  5.50000000E-01
                       outvar_i_n : Printing only first  50 k-points.
           kptopt1          1
           kptopt2         -3
         kptrlatt        4    0    0      0    4    0      0    0    1
          kptrlen1     2.38105493E+01
          kptrlen2     3.00000000E+01
P           mkmem1         10
P           mkmem2         68
            natom           3
            nband1         14
            nband2          8
           nbdbuf1          0
           nbdbuf2          2
           ndtset           2
           ndivsm1          0
           ndivsm2         10
            ngfft          30      30     192
             nkpt1         10
             nkpt2         68
            nstep          20
             nsym           1
            ntime          10
           ntypat           2
              occ      2.000000  2.000000  2.000000  2.000000  2.000000  2.000000
                       2.000000  2.000000  2.000000  2.000000  2.000000  2.000000
                       2.000000  0.000000
        optforces           1
            rprim      5.0000000000E-01 -8.6602540378E-01  0.0000000000E+00
                       5.0000000000E-01  8.6602540378E-01  0.0000000000E+00
                       0.0000000000E+00  0.0000000000E+00  1.0000000000E+00
           shiftk1     0.00000000E+00  0.00000000E+00  5.00000000E-01
           shiftk2     5.00000000E-01  5.00000000E-01  5.00000000E-01
          spgroup           1
           toldfe1     1.00000000E-07 Hartree
           toldfe2     0.00000000E+00 Hartree
           tolmxf      5.00000000E-04
           tolwfr1     0.00000000E+00
           tolwfr2     1.00000000E-12
            typat      1  2  2
              wtk1       0.06250    0.12500    0.06250    0.12500    0.12500    0.12500
                         0.12500    0.06250    0.12500    0.06250
              wtk2       1.00000    1.00000    1.00000    1.00000    1.00000    1.00000
                         1.00000    1.00000    1.00000    1.00000    1.00000    1.00000
                         1.00000    1.00000    1.00000    1.00000    1.00000    1.00000
                         1.00000    1.00000    1.00000    1.00000    1.00000    1.00000
                         1.00000    1.00000    1.00000    1.00000    1.00000    1.00000
                         1.00000    1.00000    1.00000    1.00000    1.00000    1.00000
                         1.00000    1.00000    1.00000    1.00000    1.00000    1.00000
                         1.00000    1.00000    1.00000    1.00000    1.00000    1.00000
                         1.00000    1.00000
                       outvars : Printing only first  50 k-points.
           xangst      1.5750000000E+00  9.0932667397E-01  0.0000000000E+00
                       1.5750000000E+00 -9.0932667397E-01 -1.8388847000E+00
                       1.5750000000E+00 -9.0932667397E-01  1.8388847000E+00
            xcart      2.9763186593E+00  1.7183783791E+00  0.0000000000E+00
                       2.9763186593E+00 -1.7183783791E+00 -3.4749884730E+00
                       2.9763186593E+00 -1.7183783791E+00  3.4749884730E+00
             xred      3.3333333333E-01  6.6666666667E-01  0.0000000000E+00
                       6.6666666667E-01  3.3333333333E-01 -9.1944235000E-02
                       6.6666666667E-01  3.3333333333E-01  9.1944235000E-02
            znucl       42.00000   16.00000
 
================================================================================
 
 chkinp: Checking input parameters for consistency, jdtset=   1.
 
 chkinp: Checking input parameters for consistency, jdtset=   2.
 DATA TYPE INFORMATION: 
 REAL:      Data type name: REAL(DP) 
            Kind value:      8
            Precision:      15
            Smallest nonnegligible quantity relative to 1: 0.22204460E-015
            Smallest positive number:                      0.22250739E-307
            Largest representable number:                  0.17976931E+309
 INTEGER:   Data type name: INTEGER(default) 
            Kind value: 4
            Bit size:   32
            Largest representable number: 2147483647
 LOGICAL:   Data type name: LOGICAL 
            Kind value: 4
 CHARACTER: Data type name: CHARACTER             Kind value: 1

  ==== OpenMP parallelism is OFF ====
 
  ==== Using MPI-2 specifications ==== 
  MPI-IO support is ON
  xmpi_tag_ub ................   1073741823
  xmpi_bsize_ch ..............            1
  xmpi_bsize_int .............            4
  xmpi_bsize_sp ..............            4
  xmpi_bsize_dp ..............            8
  xmpi_bsize_spc .............            8
  xmpi_bsize_dpc .............           16
  xmpio_bsize_frm ............            4
  xmpi_address_kind ..........            8
  xmpi_offset_kind ...........            8
  MPI_WTICK ..................   4.009470857315253E-010
 
================================================================================
== DATASET  1 ==================================================================
-   mpi_nproc: 1, omp_nthreads: -1 (-1 if OMP is not activated)
 
 
--- !COMMENT
src_file: m_xgScalapack.F90
src_line: 235
message: |
    xgScalapack in auto mode
...
 
 
 getdim_nloc: deduce lmnmax  =  18, lnmax  =   6,
                      lmnmaxso=  18, lnmaxso=   6.
 Exchange-correlation functional for the present dataset will be:
  GGA: Perdew-Burke-Ernzerhof functional - ixc=11
 Citation for XC functional:
  J.P.Perdew, K.Burke, M.Ernzerhof, PRL 77, 3865 (1996)
 
 Unit cell volume ucvol=  1.1597873E+03 bohr^3
 Angles (23,13,12)=  9.00000000E+01  9.00000000E+01  1.20000000E+02 degrees
 
 getcut: wavevector=  0.0000  0.0000  0.0000  ngfft=  30  30 192
         ecut(hartree)=     30.000   => boxcut(ratio)=   2.04554
- pspini: atom type   1  psp file is ./persudo/Mo.psp8
- pspatm: opening atomic psp file    ./persudo/Mo.psp8
- Mo    ONCVPSP-3.2.3.1  r_core=   1.45541   1.45541   1.35488
- 42.00000  14.00000    170510                znucl, zion, pspdat
    8   11    2    4       600   0.00000      pspcod,pspxc,lmax,lloc,mmax,r2well
    5.99000000000000    3.00000000000000    0.00000000000000   rchrg,fchrg,qchrg
     nproj     2     2     2
     extension_switch     1
  valence charge (before rescaling) integrates to:    13.9106199290666     
  pspatm : epsatm=   15.95693586
         --- l  ekb(1:nproj) -->
             0   13.833287    1.350687
             1    8.015347    1.134034
             2    2.765699    0.969071
 pspatm: atomic psp has been read  and splines computed
 
- pspini: atom type   2  psp file is ./persudo/S.psp8
- pspatm: opening atomic psp file    ./persudo/S.psp8
- S     ONCVPSP-4.0.1  r_core=   1.45687   1.45687   1.45687
- 16.00000   6.00000    220131                znucl, zion, pspdat
    8   11    2    4       600   0.00000      pspcod,pspxc,lmax,lloc,mmax,r2well
    5.99000000000000    6.00000000000000    0.00000000000000   rchrg,fchrg,qchrg
     nproj     2     2     2
     extension_switch     1
  valence charge (before rescaling) integrates to:    5.98952054080779     
  pspatm : epsatm=    9.04179351
         --- l  ekb(1:nproj) -->
             0    6.774234    0.542270
             1    3.022426    0.737017
             2   -5.033160   -1.531047
 pspatm: atomic psp has been read  and splines computed
 
   8.85053595E+02                                ecore*ucvol(ha*bohr**3)
 ==== Info on pseudopotentials ====
  Norm-conserving pseudopotentials
  Number of pseudopotentials ..    2
  Number of types of atoms   ..    2
  Scalar calculation (no spin-orbit term)
  Nonlocal part applied using Legendre polynomials
  Max number of non-local projectors over l and type   2
  Highest angular momentum +1 .......   3
  Max number of (l,n)   components ..   6
  Max number of (l,m,n) components ..   6
 
 Pseudo-Core Charge Info: 
   Number of radial points for pseudo-core charge .. 2501
   XC core-correction treatment (optnlxccc) ........    1
   Radius for pseudo-core charge for each type ..... 
 
  - Atom type    1 has pseudo-core radius ..  5.9900
  - Atom type    2 has pseudo-core radius ..  5.9900
 
 Info on the Q-grid used for form factors in spline form: 
   Number of q-points for radial functions ffspl ..   9319
   Number of q-points for vlspl ...................   9319
   vloc is computed in Reciprocal Space
   model core charge treated in real-space
 
  XC functional for type 1 is 11
  Pseudo valence available: yes
  XC functional for type 2 is 11
  Pseudo valence available: yes
 
 wfconv:    14 bands initialized randomly with npw=  4571, for ikpt=     1
 wfconv:    14 bands initialized randomly with npw=  9128, for ikpt=     2
 wfconv:    14 bands initialized randomly with npw=  4548, for ikpt=     3
 wfconv:    14 bands initialized randomly with npw=  9128, for ikpt=     4
 wfconv:    14 bands initialized randomly with npw=  9090, for ikpt=     5
 wfconv:    14 bands initialized randomly with npw=  9090, for ikpt=     6
 wfconv:    14 bands initialized randomly with npw=  9128, for ikpt=     7
 wfconv:    14 bands initialized randomly with npw=  4548, for ikpt=     8
 wfconv:    14 bands initialized randomly with npw=  9090, for ikpt=     9
 wfconv:    14 bands initialized randomly with npw=  4548, for ikpt=    10
_setup2: Arith. and geom. avg. npw (full set) are    9108.625    9108.605
 initro: for itypat=  1, take pseudo charge density from pp file
 initro: for itypat=  2, take pseudo charge density from pp file
 
================================================================================
 
=== [ionmov= 2] Broyden-Fletcher-Goldfard-Shanno method (forces)            
================================================================================
 
--- Iteration: ( 1/10) Internal Cycle: (1/1)
--------------------------------------------------------------------------------
 
 Cartesian coordinates (xcart) [bohr]
  2.97631865929489E+00  1.71837837912920E+00  0.00000000000000E+00
  2.97631865929489E+00 -1.71837837912920E+00 -3.47498847295358E+00
  2.97631865929489E+00 -1.71837837912920E+00  3.47498847295358E+00
 Reduced coordinates (xred)
  3.33333333333333E-01  6.66666666666667E-01  0.00000000000000E+00
  6.66666666666667E-01  3.33333333333333E-01 -9.19442350000000E-02
  6.66666666666667E-01  3.33333333333333E-01  9.19442350000000E-02
 
---SELF-CONSISTENT-FIELD CONVERGENCE--------------------------------------------
 
 getcut: wavevector=  0.0000  0.0000  0.0000  ngfft=  30  30 192
         ecut(hartree)=     30.000   => boxcut(ratio)=   2.04554
 
 1/G**2 cut-off applied in the following step : cutoff-mode = CRYSTAL
 
 1/G**2 cut-off applied in the following step : cutoff-mode = CRYSTAL
 
 1/G**2 cut-off applied in the following step : cutoff-mode = CRYSTAL
 
--- !WARNING
src_file: m_drivexc.F90
src_line: 783
message: |
    Density went too small (lower than xc_denpos) at 27602 points
    and was set to xc_denpos =   1.00E-14. Lowest was  -0.17E-05.
    This might be due to (1) too low boxcut or (2) too low ecut for
     pseudopotential core charge, or (3) too low ecut for estimated initial density.
     Possible workarounds : increase ecut, or define the input variable densty,
     with a value larger than the guess for the decay length, or initialize your,
     density with a preliminary LDA or GGA-PBE if you are using a more exotic xc functional.
...
 
 
 ITER STEP NUMBER     1
 Max number of non-self-consistent loops: 2
 Total charge density [el/Bohr^3]
)     Maximum=    8.5153E-01  at reduced coord.    0.4000    0.8333    0.0000
)     Minimum=    4.9547E-05  at reduced coord.    0.0667    0.3667    0.3542
   Integrated=    2.6000E+01
 
 1/G**2 cut-off applied in the following step : cutoff-mode = CRYSTAL
 ETOT  1  -91.461366159032    -9.146E+01 7.981E-02 1.048E+04 7.989E-02 7.989E-02
 scprqt: <Vxc>= -1.8090494E-01 hartree
 
 Simple mixing update:
  residual square of the potential:    632.448196603097
{SCF_istep: 1 , Vnl|psi>: 1530 , wall_time: '  7.81 [s] '} <<< TIME
 
 ITER STEP NUMBER     2
 Max number of non-self-consistent loops: 2
 Total charge density [el/Bohr^3]
)     Maximum=    1.2210E+00  at reduced coord.    0.2333    0.5000    0.0000
)     Minimum=    4.9042E-07  at reduced coord.    0.6000    0.5333    0.4583
   Integrated=    2.6000E+01
 ETOT  2  -86.493903933820     4.967E+00 6.066E-02 9.386E+04 1.085E+00 1.005E+00
 scprqt: <Vxc>= -1.4739363E-01 hartree
 
 Pulay update with  1 previous iterations:
 mixing of old trial potential: alpha(m:m-4)=  0.255      0.745
{SCF_istep: 2 , Vnl|psi>: 1527 , wall_time: '  3.90 [s] '} <<< TIME
 
 ITER STEP NUMBER     3
 Total charge density [el/Bohr^3]
)     Maximum=    9.4775E-01  at reduced coord.    0.2333    0.7333    0.0000
)     Minimum=    2.8416E-07  at reduced coord.    0.0667    0.9000    0.4271
   Integrated=    2.6000E+01
 ETOT  3  -92.239316600703    -5.745E+00 8.989E-02 2.060E+03 8.473E-01 1.574E-01
 scprqt: <Vxc>= -1.5591758E-01 hartree
 
 Pulay update with  2 previous iterations:
 mixing of old trial potential: alpha(m:m-4)=  0.285      0.161      0.555
{SCF_istep: 3 , Vnl|psi>: 800 , wall_time: '  2.10 [s] '} <<< TIME
 
 ITER STEP NUMBER     4
 Total charge density [el/Bohr^3]
)     Maximum=    9.3427E-01  at reduced coord.    0.5000    0.7333    0.0000
)     Minimum=    2.4619E-08  at reduced coord.    0.5333    0.0667    0.4271
   Integrated=    2.6000E+01
 ETOT  4  -92.310691320250    -7.137E-02 1.642E-02 1.039E+03 2.967E-02 1.278E-01
 scprqt: <Vxc>= -1.5117685E-01 hartree
 
 Pulay update with  3 previous iterations:
 mixing of old trial potential: alpha(m:m-4)=  0.363      0.117      0.107      0.412
{SCF_istep: 4 , Vnl|psi>: 830 , wall_time: '  2.12 [s] '} <<< TIME
 
 ITER STEP NUMBER     5
 Total charge density [el/Bohr^3]
)     Maximum=    9.2953E-01  at reduced coord.    0.5000    0.7333    0.0000
)     Minimum=    0.0000E+00  at reduced coord.    0.7333    0.0000    0.3802
   Integrated=    2.6000E+01
 ETOT  5  -92.326348633640    -1.566E-02 3.723E-04 6.349E+02 1.504E-02 1.127E-01
 scprqt: <Vxc>= -1.4993244E-01 hartree
 
 Pulay update with  4 previous iterations:
 mixing of old trial potential: alpha(m:m-4)=  0.651     -0.272E-01  0.981E-02  0.728E-01  0.294
{SCF_istep: 5 , Vnl|psi>: 817 , wall_time: '  2.22 [s] '} <<< TIME
 
 ITER STEP NUMBER     6
 Total charge density [el/Bohr^3]
)     Maximum=    9.2920E-01  at reduced coord.    0.5000    0.7333    0.0000
)     Minimum=    0.0000E+00  at reduced coord.    0.2000    0.0000    0.3750
   Integrated=    2.6000E+01
 ETOT  6  -92.331955942841    -5.607E-03 2.482E-04 4.570E+02 9.864E-03 1.029E-01
 scprqt: <Vxc>= -1.4979119E-01 hartree
 
 Pulay update with  5 previous iterations:
 mixing of old trial potential: alpha(m:m-4)=   1.27     -0.828E-01 -0.261     -0.941E-01  0.297E-01
{SCF_istep: 6 , Vnl|psi>: 830 , wall_time: '  2.24 [s] '} <<< TIME
 
 ITER STEP NUMBER     7
 Total charge density [el/Bohr^3]
)     Maximum=    9.2706E-01  at reduced coord.    0.5000    0.7333    0.0000
)     Minimum=    0.0000E+00  at reduced coord.    0.2667    0.0333    0.3750
   Integrated=    2.6000E+01
 ETOT  7  -92.338907844790    -6.952E-03 1.199E-04 2.282E+02 1.446E-02 8.841E-02
 scprqt: <Vxc>= -1.4992995E-01 hartree
 
 Pulay update with  6 previous iterations:
 mixing of old trial potential: alpha(m:m-4)=  0.761      0.594     -0.251E-01 -0.254     -0.132
{SCF_istep: 7 , Vnl|psi>: 830 , wall_time: '  2.20 [s] '} <<< TIME
 
 ITER STEP NUMBER     8
 Total charge density [el/Bohr^3]
)     Maximum=    9.2514E-01  at reduced coord.    0.5000    0.7333    0.0000
)     Minimum=    0.0000E+00  at reduced coord.    0.2000    0.0000    0.3750
   Integrated=    2.6000E+01
 ETOT  8  -92.341969679254    -3.062E-03 2.620E-04 1.141E+02 9.482E-03 7.893E-02
 scprqt: <Vxc>= -1.5008313E-01 hartree
 
 Pulay update with  7 previous iterations:
 mixing of old trial potential: alpha(m:m-4)=  0.512      0.318      0.373      0.774E-01 -0.189
{SCF_istep: 8 , Vnl|psi>: 830 , wall_time: '  2.13 [s] '} <<< TIME
 
 ITER STEP NUMBER     9
 Total charge density [el/Bohr^3]
)     Maximum=    9.2432E-01  at reduced coord.    0.5000    0.7333    0.0000
)     Minimum=    0.0000E+00  at reduced coord.    0.2000    0.0000    0.3750
   Integrated=    2.6000E+01
 ETOT  9  -92.342555872414    -5.862E-04 1.441E-04 8.846E+01 2.258E-03 7.667E-02
 scprqt: <Vxc>= -1.5012962E-01 hartree
 
 Pulay update with  7 previous iterations:
 mixing of old trial potential: alpha(m:m-4)=  0.357      0.389      0.145      0.266      0.126
{SCF_istep: 9 , Vnl|psi>: 830 , wall_time: '  2.09 [s] '} <<< TIME
 
 ITER STEP NUMBER    10
 Total charge density [el/Bohr^3]
)     Maximum=    9.2368E-01  at reduced coord.    0.5000    0.7333    0.0000
)     Minimum=    0.0000E+00  at reduced coord.    0.2000    0.0000    0.3750
   Integrated=    2.6000E+01
 ETOT 10  -92.343100119117    -5.442E-04 3.115E-04 6.166E+01 3.593E-03 7.311E-02
 scprqt: <Vxc>= -1.5018585E-01 hartree
 
 Pulay update with  7 previous iterations:
 mixing of old trial potential: alpha(m:m-4)=  0.440      0.283      0.258     -0.463E-01  0.105
{SCF_istep: 10 , Vnl|psi>: 827 , wall_time: '  2.08 [s] '} <<< TIME
 
 ITER STEP NUMBER    11
 Total charge density [el/Bohr^3]
)     Maximum=    9.2252E-01  at reduced coord.    0.5000    0.7333    0.0000
)     Minimum=    0.0000E+00  at reduced coord.    0.3000    0.0333    0.3750
   Integrated=    2.6000E+01
 ETOT 11  -92.343392022471    -2.919E-04 1.545E-04 4.456E+01 1.829E-03 7.131E-02
 scprqt: <Vxc>= -1.5026297E-01 hartree
 
 Pulay update with  7 previous iterations:
 mixing of old trial potential: alpha(m:m-4)=  0.668      0.528      0.297     -0.148E-01 -0.511
{SCF_istep: 11 , Vnl|psi>: 800 , wall_time: '  2.03 [s] '} <<< TIME
 
 ITER STEP NUMBER    12
 Total charge density [el/Bohr^3]
)     Maximum=    9.2104E-01  at reduced coord.    0.2667    0.5000    0.0000
)     Minimum=    0.0000E+00  at reduced coord.    0.3333    0.0667    0.3750
   Integrated=    2.6000E+01
 ETOT 12  -92.343524750404    -1.327E-04 3.275E-04 2.533E+01 3.119E-03 6.820E-02
 scprqt: <Vxc>= -1.5038201E-01 hartree
 
 Pulay update with  7 previous iterations:
 mixing of old trial potential: alpha(m:m-4)=  0.443      0.257      0.195      0.279      0.690E-01
{SCF_istep: 12 , Vnl|psi>: 830 , wall_time: '  2.07 [s] '} <<< TIME
 
 ITER STEP NUMBER    13
 Total charge density [el/Bohr^3]
)     Maximum=    9.2169E-01  at reduced coord.    0.2333    0.5000    0.0000
)     Minimum=    0.0000E+00  at reduced coord.    0.3333    0.0667    0.3750
   Integrated=    2.6000E+01
 ETOT 13  -92.343513968184     1.078E-05 1.391E-04 3.020E+01 1.674E-03 6.985E-02
 scprqt: <Vxc>= -1.5036571E-01 hartree
 
 Pulay update with  7 previous iterations:
 mixing of old trial potential: alpha(m:m-4)=  0.676      0.241     -0.221      0.105      0.217
{SCF_istep: 13 , Vnl|psi>: 826 , wall_time: '  2.07 [s] '} <<< TIME
 
 ITER STEP NUMBER    14
 Total charge density [el/Bohr^3]
)     Maximum=    9.2173E-01  at reduced coord.    0.5000    0.7333    0.0000
)     Minimum=    0.0000E+00  at reduced coord.    0.3333    0.0667    0.3750
   Integrated=    2.6000E+01
 ETOT 14  -92.343516264752    -2.297E-06 2.817E-04 2.863E+01 1.492E-04 6.993E-02
 scprqt: <Vxc>= -1.5039276E-01 hartree
 
 Pulay update with  7 previous iterations:
 mixing of old trial potential: alpha(m:m-4)=  0.418      0.492      0.941E-01 -0.224      0.856E-01
{SCF_istep: 14 , Vnl|psi>: 830 , wall_time: '  2.08 [s] '} <<< TIME
 
 ITER STEP NUMBER    15
 Total charge density [el/Bohr^3]
)     Maximum=    9.2168E-01  at reduced coord.    0.5000    0.7333    0.0000
)     Minimum=    0.0000E+00  at reduced coord.    0.3333    0.0667    0.3750
   Integrated=    2.6000E+01
 ETOT 15  -92.343529055259    -1.279E-05 1.157E-04 2.619E+01 3.182E-04 6.961E-02
 scprqt: <Vxc>= -1.5041184E-01 hartree
 
 Pulay update with  7 previous iterations:
 mixing of old trial potential: alpha(m:m-4)=  0.824      0.884E-01  0.878E-01  0.559E-01 -0.131
{SCF_istep: 15 , Vnl|psi>: 830 , wall_time: '  2.07 [s] '} <<< TIME
 
 ITER STEP NUMBER    16
 Total charge density [el/Bohr^3]
)     Maximum=    9.2155E-01  at reduced coord.    0.5000    0.7333    0.0000
)     Minimum=    0.0000E+00  at reduced coord.    0.3333    0.0667    0.3750
   Integrated=    2.6000E+01
 ETOT 16  -92.343542865477    -1.381E-05 2.248E-04 2.296E+01 4.589E-04 6.919E-02
 scprqt: <Vxc>= -1.5043756E-01 hartree
 
 Pulay update with  7 previous iterations:
 mixing of old trial potential: alpha(m:m-4)=  0.559      0.472     -0.421E-02 -0.498E-02  0.340E-01
{SCF_istep: 16 , Vnl|psi>: 830 , wall_time: '  2.08 [s] '} <<< TIME
 
 ITER STEP NUMBER    17
 Total charge density [el/Bohr^3]
)     Maximum=    9.2177E-01  at reduced coord.    0.2333    0.7333    0.0000
)     Minimum=    0.0000E+00  at reduced coord.    0.3333    0.0667    0.3750
   Integrated=    2.6000E+01
 ETOT 17  -92.343534577223     8.288E-06 8.765E-05 2.309E+01 4.761E-04 6.964E-02
 scprqt: <Vxc>= -1.5045263E-01 hartree
 
 Pulay update with  7 previous iterations:
 mixing of old trial potential: alpha(m:m-4)=  0.125      0.445      0.437      0.527E-01 -0.223E-01
{SCF_istep: 17 , Vnl|psi>: 800 , wall_time: '  2.00 [s] '} <<< TIME
 
 ITER STEP NUMBER    18
 Total charge density [el/Bohr^3]
)     Maximum=    9.2184E-01  at reduced coord.    0.2333    0.7333    0.0000
)     Minimum=    0.0000E+00  at reduced coord.    0.3333    0.0667    0.3750
   Integrated=    2.6000E+01
 ETOT 18  -92.343530380924     4.196E-06 1.644E-04 2.318E+01 1.200E-04 6.976E-02
 scprqt: <Vxc>= -1.5045701E-01 hartree
 
 Pulay update with  7 previous iterations:
 mixing of old trial potential: alpha(m:m-4)=  0.526     -0.260      0.276      0.482      0.522E-01
{SCF_istep: 18 , Vnl|psi>: 815 , wall_time: '  2.06 [s] '} <<< TIME
 
 ITER STEP NUMBER    19
 Total charge density [el/Bohr^3]
)     Maximum=    9.2173E-01  at reduced coord.    0.5000    0.7333    0.0000
)     Minimum=    0.0000E+00  at reduced coord.    0.3333    0.0667    0.3750
   Integrated=    2.6000E+01
 ETOT 19  -92.343541126395    -1.075E-05 6.309E-05 2.177E+01 2.865E-04 6.948E-02
 scprqt: <Vxc>= -1.5046511E-01 hartree
 
 Pulay update with  7 previous iterations:
 mixing of old trial potential: alpha(m:m-4)=   2.01      0.117      -1.41     -0.216E-01  0.841E-01
{SCF_istep: 19 , Vnl|psi>: 800 , wall_time: '  2.01 [s] '} <<< TIME
 
 ITER STEP NUMBER    20
 Total charge density [el/Bohr^3]
)     Maximum=    9.2165E-01  at reduced coord.    0.2667    0.5000    0.0000
)     Minimum=    0.0000E+00  at reduced coord.    0.3333    0.0667    0.3750
   Integrated=    2.6000E+01
 ETOT 20  -92.343549707783    -8.581E-06 1.157E-04 1.971E+01 2.586E-04 6.922E-02
 scprqt: <Vxc>= -1.5048509E-01 hartree
 
 Pulay update with  7 previous iterations:
 mixing of old trial potential: alpha(m:m-4)=  0.436       1.49      0.693E-01  -1.17     -0.367E-01
 
 -------------------------------------------------------------------------------------------------
 Ekinetic   = :     2.957810E+01 Ha ,    8.048610E+02 eV
 Evext_l    = :    -5.736253E+02 Ha ,   -1.560914E+04 eV
 Evext_nl   = :     1.155825E+01 Ha ,    3.145160E+02 eV
 Epsp_core  = :     7.631172E-01 Ha ,    2.076547E+01 eV
 Ehartree   = :     2.662539E+02 Ha ,    7.245138E+03 eV
 Exc_ks     = :    -1.644486E+01 Ha ,   -4.474874E+02 eV
 Enn        = :     1.895732E+02 Ha ,    5.158549E+03 eV
 -------------------------------------------------------------------------------------------------
 Etot       = :    -9.234355E+01 Ha ,   -2.512796E+03 eV
 -------------------------------------------------------------------------------------------------
 
 Cartesian components of stress tensor (hartree/bohr^3)
  sigma(1 1)=  9.14992992E-05  sigma(3 2)= -4.39054882E-09
  sigma(2 2)=  9.14837461E-05  sigma(3 1)= -1.63875407E-09
  sigma(3 3)=  4.15059646E-04  sigma(2 1)=  1.00151330E-08
 

--- !ScfConvergenceWarning
message: |
    nstep 20 was not enough SCF cycles to converge.
...
 
 scprqt:  WARNING -
  nstep=   20 was not enough SCF cycles to converge;
  maximum energy difference=  8.581E-06 exceeds toldfe=  1.000E-07
 
 
 fftdatar_write: About to write data to: mos2o_DS1_TIM1_DEN with iomode: IO_MODE_FORTRAN
 IO operation , wall:  0.10 [s] , cpu:  0.01 [s] <<< TIME
- Creating HDf5 file with MPI-IO support: mos2o_DS1_GSR.nc
 Integrated electronic density in atomic spheres:
 ------------------------------------------------
 Atom  Sphere_radius  Integrated_density
    1        2.00000         10.42349198
    2        2.00000          3.79831482
    3        2.00000          3.79833192
 Write iteration in HIST netCDF file (also create it)
 
---OUTPUT-----------------------------------------------------------------------
 
 Cartesian coordinates (xcart) [bohr]
  2.97631865929489E+00  1.71837837912920E+00  0.00000000000000E+00
  2.97631865929489E+00 -1.71837837912920E+00 -3.47498847295358E+00
  2.97631865929489E+00 -1.71837837912920E+00  3.47498847295358E+00
 Reduced coordinates (xred)
  3.33333333333333E-01  6.66666666666667E-01  0.00000000000000E+00
  6.66666666666667E-01  3.33333333333333E-01 -9.19442350000000E-02
  6.66666666666667E-01  3.33333333333333E-01  9.19442350000000E-02
 Cartesian forces (fcart) [Ha/bohr]; max,rms= 6.92181E-02 3.26277E-02 (free atoms)
 -9.25077969279952E-07 -6.91151486289750E-07 -8.76089457539904E-06
  2.77907179801532E-07  1.81500412542860E-06  6.92181226148330E-02
  6.47170789478420E-07 -1.12385263913885E-06 -6.92093617202576E-02
 Gradient of E wrt nuclear positions in reduced coordinates (gred)
 -8.09652490959412E-07  6.31630613350050E-06  3.31113828531753E-04
  8.52945121670513E-06 -1.01837318662958E-05 -2.61606590349065E+00
 -7.71979872574572E-06  3.86742573279527E-06  2.61573478966212E+00
 Total energy (etotal) [Ha]= -9.23435497077835E+01
 fconv : at Broyd/MD step   1, gradients have not converged yet. 
  max grad (force/stress) = 6.9218E-02 > tolmxf= 5.0000E-04 ha/bohr (free atoms)
 
Inverse hessian has been initialized.
 EXIT:           1           1
 {mover_itime: 1 , wall_time: ' 54.21 [s] '} <<< TIME
 
--- Iteration: ( 2/10) Internal Cycle: (1/1)
--------------------------------------------------------------------------------
 
 Cartesian coordinates (xcart) [bohr]
  2.97631773421692E+00  1.71837768797772E+00 -8.76089457539904E-06
  2.97631893720207E+00 -1.71837656412508E+00 -3.40577035033874E+00
  2.97631930646568E+00 -1.71837950298184E+00  3.40577911123332E+00
 Reduced coordinates (xred)
  3.33333244962172E-01  6.66666444225017E-01 -2.31803286808047E-07
  6.66666537314600E-01  3.33333556058191E-01 -9.01128023545421E-02
  6.66666884389895E-01  3.33333333050125E-01  9.01130341578289E-02
 
---SELF-CONSISTENT-FIELD CONVERGENCE--------------------------------------------
 
 getcut: wavevector=  0.0000  0.0000  0.0000  ngfft=  30  30 192
         ecut(hartree)=     30.000   => boxcut(ratio)=   2.04554
 
 ITER STEP NUMBER     1
 Max number of non-self-consistent loops: 2
 Total charge density [el/Bohr^3]
)     Maximum=    9.3008E-01  at reduced coord.    0.2333    0.5000    0.0000
)     Minimum=    0.0000E+00  at reduced coord.    0.0000    0.0000    0.3802
   Integrated=    2.6000E+01
 ETOT  1  -92.339922178068    -9.234E+01 1.844E-04 4.345E+02 3.058E-02 9.979E-02
 scprqt: <Vxc>= -1.4937522E-01 hartree
 
 Simple mixing update:
  residual square of the potential:    110.064840517266
{SCF_istep: 1 , Vnl|psi>: 2468 , wall_time: '  6.41 [s] '} <<< TIME
 
 ITER STEP NUMBER     2
 Max number of non-self-consistent loops: 2
 Total charge density [el/Bohr^3]
)     Maximum=    9.0384E-01  at reduced coord.    0.3000    0.6333    0.0208
)     Minimum=    0.0000E+00  at reduced coord.    0.0000    0.0000    0.3802
   Integrated=    2.6000E+01
 ETOT  2  -92.313145298010     2.678E-02 1.780E-04 5.541E+02 8.478E-02 1.508E-02
 scprqt: <Vxc>= -1.4994554E-01 hartree
 
 Pulay update with  1 previous iterations:
 mixing of old trial potential: alpha(m:m-4)=  0.697      0.303
{SCF_istep: 2 , Vnl|psi>: 1503 , wall_time: '  3.88 [s] '} <<< TIME
 
 ITER STEP NUMBER     3
 Total charge density [el/Bohr^3]
)     Maximum=    9.5581E-01  at reduced coord.    0.2333    0.5000    0.0000
)     Minimum=    0.0000E+00  at reduced coord.    0.4333    0.0333    0.3958
   Integrated=    2.6000E+01
 ETOT  3  -92.265328010757     4.782E-02 7.110E-04 1.454E+03 1.242E-01 1.392E-01
 scprqt: <Vxc>= -1.4921771E-01 hartree
 
 Pulay update with  2 previous iterations:
 mixing of old trial potential: alpha(m:m-4)=  0.409      0.591     -0.114E-03
{SCF_istep: 3 , Vnl|psi>: 804 , wall_time: '  2.08 [s] '} <<< TIME
 
 ITER STEP NUMBER     4
 Total charge density [el/Bohr^3]
)     Maximum=    9.2294E-01  at reduced coord.    0.5000    0.7333    0.0000
)     Minimum=    0.0000E+00  at reduced coord.    0.0000    0.0000    0.3802
   Integrated=    2.6000E+01
 ETOT  4  -92.352475377643    -8.715E-02 4.183E-04 3.119E+00 7.864E-02 6.053E-02
 scprqt: <Vxc>= -1.4979215E-01 hartree
 
 Pulay update with  3 previous iterations:
 mixing of old trial potential: alpha(m:m-4)=  0.499      0.210      0.292     -0.848E-03
{SCF_istep: 4 , Vnl|psi>: 803 , wall_time: '  2.07 [s] '} <<< TIME
 
 ITER STEP NUMBER     5
 Total charge density [el/Bohr^3]
)     Maximum=    9.2286E-01  at reduced coord.    0.5000    0.7333    0.0000
)     Minimum=    0.0000E+00  at reduced coord.    0.0000    0.0000    0.3802
   Integrated=    2.6000E+01
 ETOT  5  -92.352552165080    -7.679E-05 3.277E-05 3.212E+00 2.293E-03 6.282E-02
 scprqt: <Vxc>= -1.4970655E-01 hartree
 
 Pulay update with  4 previous iterations:
 mixing of old trial potential: alpha(m:m-4)=  0.463      0.276      0.114      0.148     -0.130E-02
{SCF_istep: 5 , Vnl|psi>: 828 , wall_time: '  2.14 [s] '} <<< TIME
 
 ITER STEP NUMBER     6
 Total charge density [el/Bohr^3]
)     Maximum=    9.2299E-01  at reduced coord.    0.5000    0.7333    0.0000
)     Minimum=    0.0000E+00  at reduced coord.    0.0000    0.0000    0.3802
   Integrated=    2.6000E+01
 ETOT  6  -92.352570633949    -1.847E-05 4.583E-06 3.026E+00 5.332E-04 6.229E-02
 scprqt: <Vxc>= -1.4971082E-01 hartree
 
 Pulay update with  5 previous iterations:
 mixing of old trial potential: alpha(m:m-4)=  0.108      0.377      0.257      0.112      0.147
{SCF_istep: 6 , Vnl|psi>: 803 , wall_time: '  2.07 [s] '} <<< TIME
 
 ITER STEP NUMBER     7
 Total charge density [el/Bohr^3]
)     Maximum=    9.2294E-01  at reduced coord.    0.5000    0.7667    0.0000
)     Minimum=    0.0000E+00  at reduced coord.    0.0000    0.0000    0.3802
   Integrated=    2.6000E+01
 ETOT  7  -92.352570761173    -1.272E-07 1.286E-05 3.023E+00 1.879E-04 6.247E-02
 scprqt: <Vxc>= -1.4971045E-01 hartree
 
 Pulay update with  6 previous iterations:
 mixing of old trial potential: alpha(m:m-4)=  0.400     -0.123      0.270      0.233      0.962E-01
{SCF_istep: 7 , Vnl|psi>: 830 , wall_time: '  2.15 [s] '} <<< TIME
 
 ITER STEP NUMBER     8
 Total charge density [el/Bohr^3]
)     Maximum=    9.2298E-01  at reduced coord.    0.5000    0.7667    0.0000
)     Minimum=    0.0000E+00  at reduced coord.    0.0000    0.0000    0.3802
   Integrated=    2.6000E+01
 ETOT  8  -92.352572611599    -1.850E-06 2.185E-06 3.001E+00 4.719E-05 6.243E-02
 scprqt: <Vxc>= -1.4971248E-01 hartree
 
 Pulay update with  7 previous iterations:
 mixing of old trial potential: alpha(m:m-4)=   2.22     -0.230      -1.28      0.287E-01  0.141
{SCF_istep: 8 , Vnl|psi>: 810 , wall_time: '  2.09 [s] '} <<< TIME
 
 ITER STEP NUMBER     9
 Total charge density [el/Bohr^3]
)     Maximum=    9.2315E-01  at reduced coord.    0.5000    0.7333    0.0000
)     Minimum=    0.0000E+00  at reduced coord.    0.0000    0.0000    0.3802
   Integrated=    2.6000E+01
 ETOT  9  -92.352574649537    -2.038E-06 6.432E-06 2.860E+00 1.079E-04 6.253E-02
 scprqt: <Vxc>= -1.4972479E-01 hartree
 
 Pulay update with  7 previous iterations:
 mixing of old trial potential: alpha(m:m-4)=   1.11       2.19     -0.391      -1.68     -0.197
{SCF_istep: 9 , Vnl|psi>: 821 , wall_time: '  2.08 [s] '} <<< TIME
 
 ITER STEP NUMBER    10
 Total charge density [el/Bohr^3]
)     Maximum=    9.2338E-01  at reduced coord.    0.5000    0.7333    0.0000
)     Minimum=    0.0000E+00  at reduced coord.    0.0000    0.0000    0.3802
   Integrated=    2.6000E+01
 ETOT 10  -92.352574714106    -6.457E-08 1.321E-06 2.496E+00 3.154E-05 6.255E-02
 scprqt: <Vxc>= -1.4974900E-01 hartree
 
 Pulay update with  7 previous iterations:
 mixing of old trial potential: alpha(m:m-4)=  0.411      0.416       1.46      0.256      -1.34
{SCF_istep: 10 , Vnl|psi>: 807 , wall_time: '  2.07 [s] '} <<< TIME
 
 ITER STEP NUMBER    11
 Total charge density [el/Bohr^3]
)     Maximum=    9.2335E-01  at reduced coord.    0.5000    0.7333    0.0000
)     Minimum=    0.0000E+00  at reduced coord.    0.0000    0.0000    0.3802
   Integrated=    2.6000E+01
 ETOT 11  -92.352575375876    -6.618E-07 3.977E-06 2.412E+00 1.410E-05 6.256E-02
 scprqt: <Vxc>= -1.4974972E-01 hartree
 
 Pulay update with  7 previous iterations:
 mixing of old trial potential: alpha(m:m-4)=   2.16     -0.263      -1.85     -0.706       1.66
{SCF_istep: 11 , Vnl|psi>: 814 , wall_time: '  2.05 [s] '} <<< TIME
 
 ITER STEP NUMBER    12
 Total charge density [el/Bohr^3]
)     Maximum=    9.2314E-01  at reduced coord.    0.2667    0.7667    0.0000
)     Minimum=    0.0000E+00  at reduced coord.    0.0000    0.0000    0.3802
   Integrated=    2.6000E+01
 ETOT 12  -92.352580479716    -5.104E-06 7.148E-07 1.554E+00 5.819E-04 6.198E-02
 scprqt: <Vxc>= -1.4977224E-01 hartree
 
 Pulay update with  7 previous iterations:
 mixing of old trial potential: alpha(m:m-4)=  0.433       1.26     -0.226     -0.916     -0.805
{SCF_istep: 12 , Vnl|psi>: 825 , wall_time: '  2.08 [s] '} <<< TIME
 
 ITER STEP NUMBER    13
 Total charge density [el/Bohr^3]
)     Maximum=    9.2330E-01  at reduced coord.    0.2333    0.5000    0.0000
)     Minimum=    0.0000E+00  at reduced coord.    0.0000    0.0000    0.3802
   Integrated=    2.6000E+01
 ETOT 13  -92.352578362788     2.117E-06 1.770E-06 1.831E+00 4.220E-04 6.240E-02
 scprqt: <Vxc>= -1.4977155E-01 hartree
 
 Pulay update with  7 previous iterations:
 mixing of old trial potential: alpha(m:m-4)=  0.543      0.277      0.798     -0.355E-01 -0.909
{SCF_istep: 13 , Vnl|psi>: 800 , wall_time: '  2.03 [s] '} <<< TIME
 
 ITER STEP NUMBER    14
 Total charge density [el/Bohr^3]
)     Maximum=    9.2326E-01  at reduced coord.    0.2333    0.5000    0.0000
)     Minimum=    0.0000E+00  at reduced coord.    0.0000    0.0000    0.3802
   Integrated=    2.6000E+01
 ETOT 14  -92.352579829677    -1.467E-06 4.723E-07 1.565E+00 1.434E-04 6.226E-02
 scprqt: <Vxc>= -1.4978133E-01 hartree
 
 Pulay update with  7 previous iterations:
 mixing of old trial potential: alpha(m:m-4)=  0.832      0.295E-01  0.266E-02  0.825E-01 -0.984E-01
{SCF_istep: 14 , Vnl|psi>: 830 , wall_time: '  2.07 [s] '} <<< TIME
 
 ITER STEP NUMBER    15
 Total charge density [el/Bohr^3]
)     Maximum=    9.2317E-01  at reduced coord.    0.2333    0.5000    0.0000
)     Minimum=    0.0000E+00  at reduced coord.    0.0000    0.0000    0.3802
   Integrated=    2.6000E+01
 ETOT 15  -92.352580818610    -9.889E-07 1.421E-06 1.387E+00 1.853E-04 6.208E-02
 scprqt: <Vxc>= -1.4978260E-01 hartree
 
 Pulay update with  7 previous iterations:
 mixing of old trial potential: alpha(m:m-4)=   1.46      0.617     -0.194     -0.606     -0.536
{SCF_istep: 15 , Vnl|psi>: 801 , wall_time: '  2.00 [s] '} <<< TIME
 
 ITER STEP NUMBER    16
 Total charge density [el/Bohr^3]
)     Maximum=    9.2323E-01  at reduced coord.    0.2333    0.5000    0.0000
)     Minimum=    0.0000E+00  at reduced coord.    0.0000    0.0000    0.3802
   Integrated=    2.6000E+01
 ETOT 16  -92.352581259923    -4.413E-07 2.654E-07 1.080E+00 7.287E-05 6.215E-02
 scprqt: <Vxc>= -1.4980447E-01 hartree
 
 Pulay update with  7 previous iterations:
 mixing of old trial potential: alpha(m:m-4)=  0.642       1.34     -0.235     -0.374E-01 -0.588
{SCF_istep: 16 , Vnl|psi>: 809 , wall_time: '  2.01 [s] '} <<< TIME
 
 ITER STEP NUMBER    17
 Total charge density [el/Bohr^3]
)     Maximum=    9.2324E-01  at reduced coord.    0.2333    0.5000    0.0000
)     Minimum=    0.0000E+00  at reduced coord.    0.0000    0.0000    0.3802
   Integrated=    2.6000E+01
 ETOT 17  -92.352581603467    -3.435E-07 8.747E-07 8.973E-01 3.786E-05 6.211E-02
 scprqt: <Vxc>= -1.4981412E-01 hartree
 
 Pulay update with  7 previous iterations:
 mixing of old trial potential: alpha(m:m-4)=   1.49     -0.665      0.264     -0.159      0.311E-01
{SCF_istep: 17 , Vnl|psi>: 810 , wall_time: '  2.07 [s] '} <<< TIME
 
 ITER STEP NUMBER    18
 Total charge density [el/Bohr^3]
)     Maximum=    9.2323E-01  at reduced coord.    0.2333    0.5000    0.0000
)     Minimum=    0.0000E+00  at reduced coord.    0.0000    0.0000    0.3802
   Integrated=    2.6000E+01
 ETOT 18  -92.352581718730    -1.153E-07 1.523E-07 8.117E-01 1.121E-05 6.210E-02
 scprqt: <Vxc>= -1.4981702E-01 hartree
 
 Pulay update with  7 previous iterations:
 mixing of old trial potential: alpha(m:m-4)=   1.00      0.413     -0.324      0.143     -0.391
{SCF_istep: 18 , Vnl|psi>: 801 , wall_time: '  2.16 [s] '} <<< TIME
 
 ITER STEP NUMBER    19
 Total charge density [el/Bohr^3]
)     Maximum=    9.2322E-01  at reduced coord.    0.5000    0.7333    0.0000
)     Minimum=    0.0000E+00  at reduced coord.    0.0000    0.0000    0.3802
   Integrated=    2.6000E+01
 ETOT 19  -92.352582042017    -3.233E-07 5.831E-07 6.451E-01 5.736E-05 6.205E-02
 scprqt: <Vxc>= -1.4982597E-01 hartree
 
 Pulay update with  7 previous iterations:
 mixing of old trial potential: alpha(m:m-4)=   1.62     -0.137     -0.535      0.139     -0.173
{SCF_istep: 19 , Vnl|psi>: 816 , wall_time: '  2.23 [s] '} <<< TIME
 
 ITER STEP NUMBER    20
 Total charge density [el/Bohr^3]
)     Maximum=    9.2320E-01  at reduced coord.    0.2333    0.5000    0.0000
)     Minimum=    0.0000E+00  at reduced coord.    0.0000    0.0000    0.3802
   Integrated=    2.6000E+01
 ETOT 20  -92.352582257755    -2.157E-07 8.615E-08 4.961E-01 5.421E-05 6.199E-02
 scprqt: <Vxc>= -1.4983266E-01 hartree
 
 Pulay update with  7 previous iterations:
 mixing of old trial potential: alpha(m:m-4)=   1.86     -0.648E-01 -0.708     -0.225      0.342
 
 -------------------------------------------------------------------------------------------------
 Ekinetic   = :     2.961551E+01 Ha ,    8.058789E+02 eV
 Evext_l    = :    -5.785322E+02 Ha ,   -1.574266E+04 eV
 Evext_nl   = :     1.156336E+01 Ha ,    3.146552E+02 eV
 Epsp_core  = :     7.631172E-01 Ha ,    2.076547E+01 eV
 Ehartree   = :     2.686305E+02 Ha ,    7.309807E+03 eV
 Exc_ks     = :    -1.646404E+01 Ha ,   -4.480092E+02 eV
 Enn        = :     1.920712E+02 Ha ,    5.226523E+03 eV
 -------------------------------------------------------------------------------------------------
 Etot       = :    -9.235258E+01 Ha ,   -2.513042E+03 eV
 -------------------------------------------------------------------------------------------------
 
 Cartesian components of stress tensor (hartree/bohr^3)
  sigma(1 1)=  8.29428435E-05  sigma(3 2)= -6.66643134E-10
  sigma(2 2)=  8.29406960E-05  sigma(3 1)=  2.39639943E-10
  sigma(3 3)=  3.82359768E-04  sigma(2 1)=  4.03083320E-10
 

--- !ScfConvergenceWarning
message: |
    nstep 20 was not enough SCF cycles to converge.
...
 
 scprqt:  WARNING -
  nstep=   20 was not enough SCF cycles to converge;
  maximum energy difference=  2.157E-07 exceeds toldfe=  1.000E-07
 
 
 fftdatar_write: About to write data to: mos2o_DS1_TIM2_DEN with iomode: IO_MODE_FORTRAN
 IO operation , wall:  0.01 [s] , cpu:  0.00 [s] <<< TIME
- Creating HDf5 file with MPI-IO support: mos2o_DS1_GSR.nc
 Integrated electronic density in atomic spheres:
 ------------------------------------------------
 Atom  Sphere_radius  Integrated_density
    1        2.00000         10.43283594
    2        2.00000          3.81973126
    3        2.00000          3.81972771
 Write iteration in HIST netCDF file
 
---OUTPUT-----------------------------------------------------------------------
 
 Cartesian coordinates (xcart) [bohr]
  2.97631773421692E+00  1.71837768797772E+00 -8.76089457539904E-06
  2.97631893720207E+00 -1.71837656412508E+00 -3.40577035033874E+00
  2.97631930646568E+00 -1.71837950298184E+00  3.40577911123332E+00
 Reduced coordinates (xred)
  3.33333244962172E-01  6.66666444225017E-01 -2.31803286808047E-07
  6.66666537314600E-01  3.33333556058191E-01 -9.01128023545421E-02
  6.66666884389895E-01  3.33333333050125E-01  9.01130341578289E-02
 Cartesian forces (fcart) [Ha/bohr]; max,rms= 6.19911E-02 2.92222E-02 (free atoms)
  2.10176185307001E-07  2.35754366094862E-07  2.71978613273918E-06
 -2.30902710209670E-07 -1.96858699023301E-07  6.19883329099134E-02
  2.07265249026684E-08 -3.88956670715611E-08 -6.19910526960461E-02
 Gradient of E wrt nuclear positions in reduced coordinates (gred)
  5.89794314379517E-07 -1.84089691851681E-06 -1.02793018617944E-04
 -3.27593151556630E-07  1.70207324131423E-06 -2.34281945267757E+00
 -2.62201162822887E-07  1.38823677202583E-07  2.34292224569619E+00
 Total energy (etotal) [Ha]= -9.23525822577546E+01
 
 Difference of energy with previous step (new-old):
           Absolute (Ha)=-9.03255E-03
           Relative     =-9.78098E-05
 fconv : at Broyd/MD step   2, gradients have not converged yet. 
  max grad (force/stress) = 6.1991E-02 > tolmxf= 5.0000E-04 ha/bohr (free atoms)
 
 EXIT:           1           1
 {mover_itime: 2 , wall_time: ' 50.57 [s] '} <<< TIME
 
--- Iteration: ( 3/10) Internal Cycle: (1/1)
--------------------------------------------------------------------------------
 
 Cartesian coordinates (xcart) [bohr]
  2.97631974791676E+00  1.71837994674290E+00  1.72974051031513E-05
  2.97631672491999E+00 -1.71837845022839E+00 -2.81185902920862E+00
  2.97631950504792E+00 -1.71837987564372E+00  2.81184173180352E+00
 Reduced coordinates (xred)
  3.33333364170031E-01  6.66667001591164E-01  4.57669627416800E-07
  6.66666348601636E-01  3.33333001476388E-01 -7.43985856012602E-02
  6.66666953895000E-01  3.33333330265781E-01  7.43981279316328E-02
 
---SELF-CONSISTENT-FIELD CONVERGENCE--------------------------------------------
 
 getcut: wavevector=  0.0000  0.0000  0.0000  ngfft=  30  30 192
         ecut(hartree)=     30.000   => boxcut(ratio)=   2.04554
 
 ITER STEP NUMBER     1
 Max number of non-self-consistent loops: 2
 Total charge density [el/Bohr^3]
)     Maximum=    9.9496E-01  at reduced coord.    0.2333    0.5000    0.0000
)     Minimum=    1.2897E-08  at reduced coord.    0.3667    0.7333    0.4583
   Integrated=    2.6000E+01
 ETOT  1  -91.701262793324    -9.170E+01 8.333E-03 1.661E+04 2.725E-01 3.345E-01
 scprqt: <Vxc>= -1.3747182E-01 hartree
 
 Simple mixing update:
  residual square of the potential:    774.272136679605
{SCF_istep: 1 , Vnl|psi>: 2472 , wall_time: '  6.12 [s] '} <<< TIME
 
 ITER STEP NUMBER     2
 Max number of non-self-consistent loops: 2
 Total charge density [el/Bohr^3]
)     Maximum=    8.4692E-01  at reduced coord.    0.5000    0.7333    0.0000
)     Minimum=    0.0000E+00  at reduced coord.    0.3000    0.0667    0.3906
   Integrated=    2.6000E+01
 ETOT  2  -91.862034490447    -1.608E-01 3.479E-03 3.909E+03 4.980E-01 1.635E-01
 scprqt: <Vxc>= -1.4040337E-01 hartree
 
 Pulay update with  1 previous iterations:
 mixing of old trial potential: alpha(m:m-4)=  0.535      0.465
{SCF_istep: 2 , Vnl|psi>: 1518 , wall_time: '  3.81 [s] '} <<< TIME
 
 ITER STEP NUMBER     3
 Total charge density [el/Bohr^3]
)     Maximum=    9.7128E-01  at reduced coord.    0.2333    0.5000    0.0000
)     Minimum=    0.0000E+00  at reduced coord.    0.0667    0.0000    0.5000
   Integrated=    2.6000E+01
 ETOT  3  -92.309965052588    -4.479E-01 5.629E-03 1.858E+03 1.719E-01 8.344E-03
 scprqt: <Vxc>= -1.4055977E-01 hartree
 
 Pulay update with  2 previous iterations:
 mixing of old trial potential: alpha(m:m-4)=  0.752      0.238      0.100E-01
{SCF_istep: 3 , Vnl|psi>: 813 , wall_time: '  2.10 [s] '} <<< TIME
 
 ITER STEP NUMBER     4
 Total charge density [el/Bohr^3]
)     Maximum=    9.3762E-01  at reduced coord.    0.5000    0.7333    0.0000
)     Minimum=    0.0000E+00  at reduced coord.    0.5000    0.1333    0.3750
   Integrated=    2.6000E+01
 ETOT  4  -92.374782091645    -6.482E-02 6.124E-04 4.269E+02 2.936E-02 2.103E-02
 scprqt: <Vxc>= -1.4026640E-01 hartree
 
 Pulay update with  3 previous iterations:
 mixing of old trial potential: alpha(m:m-4)=  0.727      0.261      0.396E-01 -0.277E-01
{SCF_istep: 4 , Vnl|psi>: 824 , wall_time: '  2.11 [s] '} <<< TIME
 
 ITER STEP NUMBER     5
 Total charge density [el/Bohr^3]
)     Maximum=    9.3964E-01  at reduced coord.    0.2667    0.7667    0.0000
)     Minimum=    0.0000E+00  at reduced coord.    0.1667    0.0000    0.3542
   Integrated=    2.6000E+01
 ETOT  5  -92.375813337279    -1.031E-03 2.347E-04 3.564E+02 2.450E-03 2.348E-02
 scprqt: <Vxc>= -1.4018060E-01 hartree
 
 Pulay update with  4 previous iterations:
 mixing of old trial potential: alpha(m:m-4)=  0.863      0.601E-01  0.889E-01  0.688E-02 -0.189E-01
{SCF_istep: 5 , Vnl|psi>: 826 , wall_time: '  2.14 [s] '} <<< TIME
 
 ITER STEP NUMBER     6
 Total charge density [el/Bohr^3]
)     Maximum=    9.4045E-01  at reduced coord.    0.5000    0.7333    0.0000
)     Minimum=    0.0000E+00  at reduced coord.    0.1333    0.0000    0.3594
   Integrated=    2.6000E+01
 ETOT  6  -92.376222718575    -4.094E-04 1.830E-04 3.054E+02 2.944E-03 2.642E-02
 scprqt: <Vxc>= -1.4035010E-01 hartree
 
 Pulay update with  5 previous iterations:
 mixing of old trial potential: alpha(m:m-4)=  0.738      0.465     -0.166     -0.187E-01 -0.839E-02
{SCF_istep: 6 , Vnl|psi>: 817 , wall_time: '  2.11 [s] '} <<< TIME
 
 ITER STEP NUMBER     7
 Total charge density [el/Bohr^3]
)     Maximum=    9.4083E-01  at reduced coord.    0.2667    0.5000    0.0000
)     Minimum=    0.0000E+00  at reduced coord.    0.1667    0.0000    0.3594
   Integrated=    2.6000E+01
 ETOT  7  -92.376494777903    -2.721E-04 2.453E-04 2.593E+02 2.085E-03 2.851E-02
 scprqt: <Vxc>= -1.4053504E-01 hartree
 
 Pulay update with  6 previous iterations:
 mixing of old trial potential: alpha(m:m-4)=  0.902      0.273      0.878E-01 -0.178     -0.735E-01
{SCF_istep: 7 , Vnl|psi>: 825 , wall_time: '  2.13 [s] '} <<< TIME
 
 ITER STEP NUMBER     8
 Total charge density [el/Bohr^3]
)     Maximum=    9.4075E-01  at reduced coord.    0.2333    0.5000    0.0000
)     Minimum=    0.0000E+00  at reduced coord.    0.1000    0.3333    0.3594
   Integrated=    2.6000E+01
 ETOT  8  -92.376755925578    -2.611E-04 1.940E-04 2.095E+02 1.939E-03 3.044E-02
 scprqt: <Vxc>= -1.4075414E-01 hartree
 
 Pulay update with  7 previous iterations:
 mixing of old trial potential: alpha(m:m-4)=  0.978      0.370E-01  0.376E-01  0.832E-01 -0.668E-01
{SCF_istep: 8 , Vnl|psi>: 830 , wall_time: '  2.21 [s] '} <<< TIME
 
 ITER STEP NUMBER     9
 Total charge density [el/Bohr^3]
)     Maximum=    9.4052E-01  at reduced coord.    0.2667    0.5000    0.0000
)     Minimum=    0.0000E+00  at reduced coord.    0.0000    0.0000    0.3646
   Integrated=    2.6000E+01
 ETOT  9  -92.376883103037    -1.272E-04 1.305E-04 1.790E+02 9.204E-04 3.136E-02
 scprqt: <Vxc>= -1.4089343E-01 hartree
 
 Pulay update with  7 previous iterations:
 mixing of old trial potential: alpha(m:m-4)=  0.939      0.511     -0.374     -0.126      0.547E-01
{SCF_istep: 9 , Vnl|psi>: 828 , wall_time: '  2.19 [s] '} <<< TIME
 
 ITER STEP NUMBER    10
 Total charge density [el/Bohr^3]
)     Maximum=    9.4026E-01  at reduced coord.    0.2667    0.7667    0.0000
)     Minimum=    0.0000E+00  at reduced coord.    0.0000    0.0000    0.3646
   Integrated=    2.6000E+01
 ETOT 10  -92.376977821373    -9.472E-05 4.592E-04 1.484E+02 6.964E-04 3.206E-02
 scprqt: <Vxc>= -1.4104434E-01 hartree
 
 Pulay update with  7 previous iterations:
 mixing of old trial potential: alpha(m:m-4)=  0.628      0.436      0.458     -0.423     -0.182
{SCF_istep: 10 , Vnl|psi>: 815 , wall_time: '  2.09 [s] '} <<< TIME
 
 ITER STEP NUMBER    11
 Total charge density [el/Bohr^3]
)     Maximum=    9.4013E-01  at reduced coord.    0.2333    0.7333    0.0000
)     Minimum=    0.0000E+00  at reduced coord.    0.0000    0.0000    0.3646
   Integrated=    2.6000E+01
 ETOT 11  -92.377007333003    -2.951E-05 2.818E-04 1.329E+02 4.161E-05 3.210E-02
 scprqt: <Vxc>= -1.4112305E-01 hartree
 
 Pulay update with  7 previous iterations:
 mixing of old trial potential: alpha(m:m-4)=  0.474      0.534      0.584E-01  0.397     -0.323
{SCF_istep: 11 , Vnl|psi>: 828 , wall_time: '  2.13 [s] '} <<< TIME
 
 ITER STEP NUMBER    12
 Total charge density [el/Bohr^3]
)     Maximum=    9.4021E-01  at reduced coord.    0.2333    0.7333    0.0000
)     Minimum=    0.0000E+00  at reduced coord.    0.0000    0.0000    0.3646
   Integrated=    2.6000E+01
 ETOT 12  -92.377035131927    -2.780E-05 9.788E-04 1.179E+02 4.001E-04 3.250E-02
 scprqt: <Vxc>= -1.4120758E-01 hartree
 
 Pulay update with  7 previous iterations:
 mixing of old trial potential: alpha(m:m-4)=  0.736      0.241      0.188     -0.219      0.302
{SCF_istep: 12 , Vnl|psi>: 813 , wall_time: '  2.15 [s] '} <<< TIME
 
 ITER STEP NUMBER    13
 Total charge density [el/Bohr^3]
)     Maximum=    9.3992E-01  at reduced coord.    0.5000    0.7333    0.0000
)     Minimum=    0.0000E+00  at reduced coord.    0.1333    0.0000    0.3698
   Integrated=    2.6000E+01
 ETOT 13  -92.377072508452    -3.738E-05 4.796E-04 1.014E+02 7.392E-04 3.324E-02
 scprqt: <Vxc>= -1.4129215E-01 hartree
 
 Pulay update with  7 previous iterations:
 mixing of old trial potential: alpha(m:m-4)=  0.344      0.427      0.241      0.195     -0.278
{SCF_istep: 13 , Vnl|psi>: 809 , wall_time: '  2.15 [s] '} <<< TIME
 
 ITER STEP NUMBER    14
 Total charge density [el/Bohr^3]
)     Maximum=    9.4010E-01  at reduced coord.    0.2333    0.5000    0.0000
)     Minimum=    0.0000E+00  at reduced coord.    0.1333    0.0000    0.3698
   Integrated=    2.6000E+01
 ETOT 14  -92.377068414825     4.094E-06 1.489E-03 9.895E+01 1.886E-04 3.305E-02
 scprqt: <Vxc>= -1.4130533E-01 hartree
 
 Pulay update with  7 previous iterations:
 mixing of old trial potential: alpha(m:m-4)=  0.228      0.176      0.412      0.223      0.171
{SCF_istep: 14 , Vnl|psi>: 813 , wall_time: '  2.21 [s] '} <<< TIME
 
 ITER STEP NUMBER    15
 Total charge density [el/Bohr^3]
)     Maximum=    9.4012E-01  at reduced coord.    0.2333    0.5000    0.0000
)     Minimum=    0.0000E+00  at reduced coord.    0.1333    0.0000    0.3698
   Integrated=    2.6000E+01
 ETOT 15  -92.377060985893     7.429E-06 5.241E-04 1.000E+02 1.021E-04 3.295E-02
 scprqt: <Vxc>= -1.4128806E-01 hartree
 
 Pulay update with  7 previous iterations:
 mixing of old trial potential: alpha(m:m-4)=   1.58     -0.201     -0.158     -0.113      0.426E-01
{SCF_istep: 15 , Vnl|psi>: 824 , wall_time: '  2.21 [s] '} <<< TIME
 
 ITER STEP NUMBER    16
 Total charge density [el/Bohr^3]
)     Maximum=    9.4016E-01  at reduced coord.    0.2333    0.5000    0.0000
)     Minimum=    0.0000E+00  at reduced coord.    0.1333    0.0000    0.3698
   Integrated=    2.6000E+01
 ETOT 16  -92.377080518149    -1.953E-05 1.412E-03 8.095E+01 3.106E-04 3.326E-02
 scprqt: <Vxc>= -1.4139427E-01 hartree
 
 Pulay update with  7 previous iterations:
 mixing of old trial potential: alpha(m:m-4)=  0.193       1.35     -0.260     -0.230E-01 -0.118
{SCF_istep: 16 , Vnl|psi>: 813 , wall_time: '  2.08 [s] '} <<< TIME
 
 ITER STEP NUMBER    17
 Total charge density [el/Bohr^3]
)     Maximum=    9.4017E-01  at reduced coord.    0.2667    0.7667    0.0000
)     Minimum=    0.0000E+00  at reduced coord.    0.1333    0.0000    0.3698
   Integrated=    2.6000E+01
 ETOT 17  -92.377084123080    -3.605E-06 3.695E-04 7.755E+01 7.347E-05 3.333E-02
 scprqt: <Vxc>= -1.4141514E-01 hartree
 
 Pulay update with  7 previous iterations:
 mixing of old trial potential: alpha(m:m-4)= -0.123      0.283       1.32     -0.271     -0.196E-01
{SCF_istep: 17 , Vnl|psi>: 823 , wall_time: '  2.13 [s] '} <<< TIME
 
 ITER STEP NUMBER    18
 Total charge density [el/Bohr^3]
)     Maximum=    9.4005E-01  at reduced coord.    0.2333    0.7333    0.0000
)     Minimum=    0.0000E+00  at reduced coord.    0.1333    0.0000    0.3698
   Integrated=    2.6000E+01
 ETOT 18  -92.377069620039     1.450E-05 8.899E-04 8.808E+01 2.646E-04 3.307E-02
 scprqt: <Vxc>= -1.4133297E-01 hartree
 
 Pulay update with  7 previous iterations:
 mixing of old trial potential: alpha(m:m-4)=  0.903E-01 -0.179      0.282       1.32     -0.315
{SCF_istep: 18 , Vnl|psi>: 813 , wall_time: '  2.10 [s] '} <<< TIME
 
 ITER STEP NUMBER    19
 Total charge density [el/Bohr^3]
)     Maximum=    9.4006E-01  at reduced coord.    0.2333    0.7333    0.0000
)     Minimum=    0.0000E+00  at reduced coord.    0.1333    0.0000    0.3698
   Integrated=    2.6000E+01
 ETOT 19  -92.377069965018    -3.450E-07 6.322E-04 8.735E+01 2.551E-06 3.307E-02
 scprqt: <Vxc>= -1.4133699E-01 hartree
 
 Pulay update with  7 previous iterations:
 mixing of old trial potential: alpha(m:m-4)=   2.37      -1.48      0.213     -0.856E-01 -0.217E-01
{SCF_istep: 19 , Vnl|psi>: 813 , wall_time: '  2.07 [s] '} <<< TIME
 
 ITER STEP NUMBER    20
 Total charge density [el/Bohr^3]
)     Maximum=    9.4018E-01  at reduced coord.    0.2333    0.5000    0.0000
)     Minimum=    0.0000E+00  at reduced coord.    0.1333    0.0000    0.3698
   Integrated=    2.6000E+01
 ETOT 20  -92.377069313114     6.519E-07 5.215E-04 8.091E+01 5.111E-05 3.302E-02
 scprqt: <Vxc>= -1.4136528E-01 hartree
 
 Pulay update with  7 previous iterations:
 mixing of old trial potential: alpha(m:m-4)=   1.00       3.05      -2.62      0.250     -0.553
 
 -------------------------------------------------------------------------------------------------
 Ekinetic   = :     3.020770E+01 Ha ,    8.219932E+02 eV
 Evext_l    = :    -6.221037E+02 Ha ,   -1.692830E+04 eV
 Evext_nl   = :     1.163998E+01 Ha ,    3.167399E+02 eV
 Epsp_core  = :     7.631172E-01 Ha ,    2.076547E+01 eV
 Ehartree   = :     2.900329E+02 Ha ,    7.892196E+03 eV
 Exc_ks     = :    -1.669109E+01 Ha ,   -4.541877E+02 eV
 Enn        = :     2.137740E+02 Ha ,    5.817087E+03 eV
 -------------------------------------------------------------------------------------------------
 Etot       = :    -9.237707E+01 Ha ,   -2.513708E+03 eV
 -------------------------------------------------------------------------------------------------
 
 Cartesian components of stress tensor (hartree/bohr^3)
  sigma(1 1)= -7.00937273E-05  sigma(3 2)= -3.68272850E-10
  sigma(2 2)= -7.00952551E-05  sigma(3 1)=  8.88007922E-10
  sigma(3 3)= -1.73873482E-04  sigma(2 1)=  1.79386507E-09
 

--- !ScfConvergenceWarning
message: |
    nstep 20 was not enough SCF cycles to converge.
...
 
 scprqt:  WARNING -
  nstep=   20 was not enough SCF cycles to converge;
  maximum energy difference=  6.519E-07 exceeds toldfe=  1.000E-07
 
 
 fftdatar_write: About to write data to: mos2o_DS1_TIM3_DEN with iomode: IO_MODE_FORTRAN
 IO operation , wall:  0.01 [s] , cpu:  0.00 [s] <<< TIME
- Creating HDf5 file with MPI-IO support: mos2o_DS1_GSR.nc
 Integrated electronic density in atomic spheres:
 ------------------------------------------------
 Atom  Sphere_radius  Integrated_density
    1        2.00000         10.59980275
    2        2.00000          3.98070197
    3        2.00000          3.98071293
 Write iteration in HIST netCDF file
 
---OUTPUT-----------------------------------------------------------------------
 
 Cartesian coordinates (xcart) [bohr]
  2.97631974791676E+00  1.71837994674290E+00  1.72974051031513E-05
  2.97631672491999E+00 -1.71837845022839E+00 -2.81185902920862E+00
  2.97631950504792E+00 -1.71837987564372E+00  2.81184173180352E+00
 Reduced coordinates (xred)
  3.33333364170031E-01  6.66667001591164E-01  4.57669627416800E-07
  6.66666348601636E-01  3.33333001476388E-01 -7.43985856012602E-02
  6.66666953895000E-01  3.33333330265781E-01  7.43981279316328E-02
 Cartesian forces (fcart) [Ha/bohr]; max,rms= 3.30216E-02 1.55643E-02 (free atoms)
 -3.34524538756968E-07 -1.67073772564216E-06 -9.34915127225255E-06
  1.15743775522215E-06  1.23338054077579E-06 -3.30122943506905E-02
 -8.22913216465182E-07  4.37357184866373E-07  3.30216435019627E-02
 Gradient of E wrt nuclear positions in reduced coordinates (gred)
 -7.61722712812259E-06  9.60853038151135E-06  3.53346709589534E-04
  2.91333977568333E-06 -9.80314695136348E-06  1.24768390682026E+00
  4.70388735243926E-06  1.94616569852127E-07 -1.24803725352985E+00
 Total energy (etotal) [Ha]= -9.23770693131141E+01
 
 Difference of energy with previous step (new-old):
           Absolute (Ha)=-2.44871E-02
           Relative     =-2.65112E-04
 fconv : at Broyd/MD step   3, gradients have not converged yet. 
  max grad (force/stress) = 3.3022E-02 > tolmxf= 5.0000E-04 ha/bohr (free atoms)
 
 EXIT:           1           1
 {mover_itime: 3 , wall_time: ' 51.10 [s] '} <<< TIME
 
--- Iteration: ( 4/10) Internal Cycle: (1/1)
--------------------------------------------------------------------------------
 
 Cartesian coordinates (xcart) [bohr]
  2.97631890288182E+00  1.71837815358237E+00  3.08663425448353E-06
  2.97631816869609E+00 -1.71837705842492E+00 -3.01825410147559E+00
  2.97631890630676E+00 -1.71837947428666E+00  3.01825101484133E+00
 Reduced coordinates (xred)
  3.33333396130113E-01  6.66666685711571E-01  8.16688249362936E-08
  6.66666456153627E-01  3.33333379012275E-01 -7.98595640117084E-02
  6.66666814382927E-01  3.33333268609487E-01  7.98594823428836E-02
 
---SELF-CONSISTENT-FIELD CONVERGENCE--------------------------------------------
 
 getcut: wavevector=  0.0000  0.0000  0.0000  ngfft=  30  30 192
         ecut(hartree)=     30.000   => boxcut(ratio)=   2.04554
 
 ITER STEP NUMBER     1
 Max number of non-self-consistent loops: 2
 Total charge density [el/Bohr^3]
)     Maximum=    9.2240E-01  at reduced coord.    0.2667    0.7667    0.0000
)     Minimum=    0.0000E+00  at reduced coord.    0.6667    0.3333    0.4010
   Integrated=    2.6000E+01
 ETOT  1  -92.236193742579    -9.224E+01 1.568E-03 4.302E+03 1.242E-01 1.572E-01
 scprqt: <Vxc>= -1.4761913E-01 hartree
 
 Simple mixing update:
  residual square of the potential:    295.750376570763
{SCF_istep: 1 , Vnl|psi>: 2467 , wall_time: '  6.21 [s] '} <<< TIME
 
 ITER STEP NUMBER     2
 Max number of non-self-consistent loops: 2
 Total charge density [el/Bohr^3]
)     Maximum=    9.8356E-01  at reduced coord.    0.2333    0.5000    0.0000
)     Minimum=    0.0000E+00  at reduced coord.    0.0333    0.0667    0.4063
   Integrated=    2.6000E+01
 ETOT  2  -92.215483137493     2.071E-02 1.529E-03 1.474E+03 2.557E-01 9.851E-02
 scprqt: <Vxc>= -1.4580418E-01 hartree
 
 Pulay update with  1 previous iterations:
 mixing of old trial potential: alpha(m:m-4)=  0.585      0.415
{SCF_istep: 2 , Vnl|psi>: 1530 , wall_time: '  3.83 [s] '} <<< TIME
 
 ITER STEP NUMBER     3
 Total charge density [el/Bohr^3]
)     Maximum=    8.9698E-01  at reduced coord.    0.2333    0.7333    0.0000
)     Minimum=    0.0000E+00  at reduced coord.    0.6333    0.2667    0.4063
   Integrated=    2.6000E+01
 ETOT  3  -92.292172510479    -7.669E-02 2.154E-03 1.732E+03 1.598E-01 6.132E-02
 scprqt: <Vxc>= -1.4690881E-01 hartree
 
 Pulay update with  2 previous iterations:
 mixing of old trial potential: alpha(m:m-4)=  0.586      0.409      0.435E-02
{SCF_istep: 3 , Vnl|psi>: 807 , wall_time: '  2.07 [s] '} <<< TIME
 
 ITER STEP NUMBER     4
 Total charge density [el/Bohr^3]
)     Maximum=    9.3042E-01  at reduced coord.    0.2333    0.5000    0.0000
)     Minimum=    0.0000E+00  at reduced coord.    0.6333    0.2667    0.4063
   Integrated=    2.6000E+01
 ETOT  4  -92.380015818989    -8.784E-02 7.533E-04 1.650E+02 5.861E-02 2.711E-03
 scprqt: <Vxc>= -1.4633501E-01 hartree
 
 Pulay update with  3 previous iterations:
 mixing of old trial potential: alpha(m:m-4)=  0.921      0.159E-01  0.688E-01 -0.553E-02
{SCF_istep: 4 , Vnl|psi>: 819 , wall_time: '  2.13 [s] '} <<< TIME
 
 ITER STEP NUMBER     5
 Total charge density [el/Bohr^3]
)     Maximum=    9.3255E-01  at reduced coord.    0.5000    0.7667    0.0000
)     Minimum=    0.0000E+00  at reduced coord.    0.0000    0.0000    0.3958
   Integrated=    2.6000E+01
 ETOT  5  -92.381561707473    -1.546E-03 7.448E-04 9.160E+01 4.510E-03 1.802E-03
 scprqt: <Vxc>= -1.4573771E-01 hartree
 
 Pulay update with  4 previous iterations:
 mixing of old trial potential: alpha(m:m-4)=  0.693      0.441     -0.988E-01 -0.290E-01 -0.679E-02
{SCF_istep: 5 , Vnl|psi>: 830 , wall_time: '  2.18 [s] '} <<< TIME
 
 ITER STEP NUMBER     6
 Total charge density [el/Bohr^3]
)     Maximum=    9.3363E-01  at reduced coord.    0.5000    0.7667    0.0000
)     Minimum=    0.0000E+00  at reduced coord.    0.0000    0.0000    0.3958
   Integrated=    2.6000E+01
 ETOT  6  -92.381911138893    -3.494E-04 3.497E-04 6.288E+01 2.976E-03 4.778E-03
 scprqt: <Vxc>= -1.4555841E-01 hartree
 
[...]
  -2.29480   -1.35244   -1.34323   -1.34083   -0.50903   -0.50425   -0.27555   -0.23990
  -0.21139   -0.17576   -0.13224   -0.09303   -0.08405    0.02684
 kpt#   9, nband= 14, wtk=  0.12500, kpt=  0.2500  0.5000  0.5000 (reduced coord)
  -2.29480   -1.34965   -1.34372   -1.34323   -0.51016   -0.50339   -0.25044   -0.24336
  -0.19299   -0.18148   -0.16817   -0.12217   -0.07850    0.02158
 kpt#  10, nband= 14, wtk=  0.06250, kpt=  0.5000  0.5000  0.5000 (reduced coord)
  -2.29480   -1.35244   -1.34323   -1.34083   -0.50903   -0.50425   -0.27555   -0.23990
  -0.21139   -0.17576   -0.13224   -0.09303   -0.08405    0.02684
 Total charge density [el/Bohr^3]
)     Maximum=    9.3514E-01  at reduced coord.    0.5000    0.7667    0.0000
)Next maximum=    9.3514E-01  at reduced coord.    0.5000    0.7333    0.0000
)     Minimum=    0.0000E+00  at reduced coord.    0.0000    0.0000    0.3802
)Next minimum=    0.0000E+00  at reduced coord.    0.2667    0.0000    0.3802
   Integrated=    2.6000E+01
 
 Cartesian components of stress tensor (hartree/bohr^3)
  sigma(1 1)= -1.06907814E-05  sigma(3 2)= -7.07670442E-10
  sigma(2 2)= -1.06912986E-05  sigma(3 1)= -3.33666188E-11
  sigma(3 3)=  1.77416947E-05  sigma(2 1)=  1.56177190E-10
 
-Cartesian components of stress tensor (GPa)         [Pressure=  3.5701E-02 GPa]
- sigma(1 1)= -3.14533594E-01  sigma(3 2)= -2.08203797E-05
- sigma(2 2)= -3.14548812E-01  sigma(3 1)= -9.81679653E-07
- sigma(3 3)=  5.21978591E-01  sigma(2 1)=  4.59489079E-06
 dataset: 1 , wall: 04:54 [minutes] , cpu: 04:43 [minutes] <<< TIME
 
================================================================================
== DATASET  2 ==================================================================
-   mpi_nproc: 1, omp_nthreads: -1 (-1 if OMP is not activated)
 
 
--- !COMMENT
src_file: m_xgScalapack.F90
src_line: 235
message: |
    xgScalapack in auto mode
...
 
 mkfilename : getden/=0, take file _DEN from output of DATASET   1.
 
 
 getdim_nloc: deduce lmnmax  =  18, lnmax  =   6,
                      lmnmaxso=  18, lnmaxso=   6.
 Exchange-correlation functional for the present dataset will be:
  GGA: Perdew-Burke-Ernzerhof functional - ixc=11
 Citation for XC functional:
  J.P.Perdew, K.Burke, M.Ernzerhof, PRL 77, 3865 (1996)
 
 Unit cell volume ucvol=  1.1597873E+03 bohr^3
 Angles (23,13,12)=  9.00000000E+01  9.00000000E+01  1.20000000E+02 degrees
 
 getcut: wavevector=  0.0000  0.0000  0.0000  ngfft=  30  30 192
         ecut(hartree)=     30.000   => boxcut(ratio)=   2.04554
 wfconv:     8 bands initialized randomly with npw=  4592, for ikpt=     1
 wfconv:     8 bands initialized randomly with npw=  9191, for ikpt=     2
 wfconv:     8 bands initialized randomly with npw=  9179, for ikpt=     3
 wfconv:     8 bands initialized randomly with npw=  9161, for ikpt=     4
 wfconv:     8 bands initialized randomly with npw=  9123, for ikpt=     5
 wfconv:     8 bands initialized randomly with npw=  9131, for ikpt=     6
 wfconv:     8 bands initialized randomly with npw=  9103, for ikpt=     7
 wfconv:     8 bands initialized randomly with npw=  9111, for ikpt=     8
 wfconv:     8 bands initialized randomly with npw=  9121, for ikpt=     9
 wfconv:     8 bands initialized randomly with npw=  9121, for ikpt=    10
 wfconv:     8 bands initialized randomly with npw=  9101, for ikpt=    11
 wfconv:     8 bands initialized randomly with npw=  9085, for ikpt=    12
 wfconv:     8 bands initialized randomly with npw=  9089, for ikpt=    13
 wfconv:     8 bands initialized randomly with npw=  9094, for ikpt=    14
 wfconv:     8 bands initialized randomly with npw=  9082, for ikpt=    15
 wfconv:     8 bands initialized randomly with npw=  9086, for ikpt=    16
 wfconv:     8 bands initialized randomly with npw=  9078, for ikpt=    17
 wfconv:     8 bands initialized randomly with npw=  4530, for ikpt=    18
 wfconv:     8 bands initialized randomly with npw=  9080, for ikpt=    19
 wfconv:     8 bands initialized randomly with npw=  9102, for ikpt=    20
 wfconv:     8 bands initialized randomly with npw=  9100, for ikpt=    21
 wfconv:     8 bands initialized randomly with npw=  9086, for ikpt=    22
 wfconv:     8 bands initialized randomly with npw=  9092, for ikpt=    23
 wfconv:     8 bands initialized randomly with npw=  9092, for ikpt=    24
 wfconv:     8 bands initialized randomly with npw=  9074, for ikpt=    25
 wfconv:     8 bands initialized randomly with npw=  9054, for ikpt=    26
 wfconv:     8 bands initialized randomly with npw=  9076, for ikpt=    27
 wfconv:     8 bands initialized randomly with npw=  9072, for ikpt=    28
 wfconv:     8 bands initialized randomly with npw=  9071, for ikpt=    29
 wfconv:     8 bands initialized randomly with npw=  9052, for ikpt=    30
 wfconv:     8 bands initialized randomly with npw=  9082, for ikpt=    31
 wfconv:     8 bands initialized randomly with npw=  9086, for ikpt=    32
 wfconv:     8 bands initialized randomly with npw=  9095, for ikpt=    33
 wfconv:     8 bands initialized randomly with npw=  9093, for ikpt=    34
 wfconv:     8 bands initialized randomly with npw=  9104, for ikpt=    35
 wfconv:     8 bands initialized randomly with npw=  9093, for ikpt=    36
 wfconv:     8 bands initialized randomly with npw=  9091, for ikpt=    37
 wfconv:     8 bands initialized randomly with npw=  9104, for ikpt=    38
 wfconv:     8 bands initialized randomly with npw=  9095, for ikpt=    39
 wfconv:     8 bands initialized randomly with npw=  9105, for ikpt=    40
 wfconv:     8 bands initialized randomly with npw=  9099, for ikpt=    41
 wfconv:     8 bands initialized randomly with npw=  9091, for ikpt=    42
 wfconv:     8 bands initialized randomly with npw=  9090, for ikpt=    43
 wfconv:     8 bands initialized randomly with npw=  9073, for ikpt=    44
 wfconv:     8 bands initialized randomly with npw=  9081, for ikpt=    45
 wfconv:     8 bands initialized randomly with npw=  9080, for ikpt=    46
 wfconv:     8 bands initialized randomly with npw=  9066, for ikpt=    47
 wfconv:     8 bands initialized randomly with npw=  9048, for ikpt=    48
 wfconv:     8 bands initialized randomly with npw=  9069, for ikpt=    49
 wfconv:     8 bands initialized randomly with npw=  9086, for ikpt=    50
 About to read data(r) from: mos2o_DS1_DEN
 
================================================================================
 
          - hdr_check: checking restart file header for consistency -
 
 
          current calculation                           restart file
          -------------------                           ------------
 
  calculation expects a density             |  input file contains a density
. ABINIT  code version 9.10.3               |  ABINIT  code version 9.10.3
. date 20250507 bantot      544 natom    3  |  date 20250507 bantot      140 natom    3
  nkpt      68 nsym  1 ngfft  30,  30, 192  |  nkpt      10 nsym  1 ngfft  30,  30, 192
  ntypat  2 ecut_eff  30.0000000            |  ntypat  2 ecut_eff  30.0000000
  usepaw  0                                 |  usepaw  0
  usewvl  0                                 |  usewvl  0
  rprimd:                                   |  rprimd:
     2.9763187  -5.1551351   0.0000000      |     2.9763187  -5.1551351   0.0000000
     2.9763187   5.1551351   0.0000000      |     2.9763187   5.1551351   0.0000000
     0.0000000   0.0000000  37.7945227      |     0.0000000   0.0000000  37.7945227
  symafm:                                   |  symafm:
    1                                       |    1
  symrel:                                   |  symrel:
    1  0  0  0  1  0  0  0  1               |    1  0  0  0  1  0  0  0  1
  typat:                                    |  typat:
    1  2  2                                 |    1  2  2
  so_psp  :                                 |  so_psp  :
    1  1                                    |    1  1
 
--- !COMMENT
src_file: m_hdr.F90
src_line: 4232
message: |
    input kptrlatt = 0 0 0 0 0 0 0 0 0  /= disk file kptrlatt = 4 0 0 0 4 0 0 0 1
...
 
 
--- !COMMENT
src_file: m_hdr.F90
src_line: 4235
message: |
    input kptopt = -3  /= disk file kptopt = 1
...
 
 
--- !WARNING
src_file: m_hdr.F90
src_line: 4256
message: |
    input ival=0 not equal disk file ival=13
...
 
  tnons:                                    |  tnons:
     0.0000000   0.0000000   0.0000000      |     0.0000000   0.0000000   0.0000000
   znucl:                                   |   znucl:
   42.00 16.00                              |       42.00 16.00
  pseudopotential atom type  1:             |  pseudopotential atom type  1:
  pspso   0 pspxc  11                       |  pspso   0 pspxc  11
  pspdat   170510 pspcod    8 zion  14.0    |  pspdat   170510 pspcod    8 zion  14.0
  pseudopotential atom type  2:             |  pseudopotential atom type  2:
  pspso   0 pspxc  11                       |  pspso   0 pspxc  11
  pspdat   220131 pspcod    8 zion   6.0    |  pspdat   220131 pspcod    8 zion   6.0
  xred:                                     |  xred:
     0.3333333   0.6666667   0.0000000      |     0.3333333   0.6666667   0.0000000
     0.6666667   0.3333333  -0.0919442      |     0.6666667   0.3333333  -0.0919442
     0.6666667   0.3333333   0.0919442      |     0.6666667   0.3333333   0.0919442
 hdr_check:  Density/Potential file is OK for restart of calculation
================================================================================
 read_rhor , wall:  0.05 [s] , cpu:  0.00 [s] <<< TIME
 
================================================================================
 
=== [ionmov= 2] Broyden-Fletcher-Goldfard-Shanno method (forces)            
================================================================================
 
--- Iteration: ( 1/10) Internal Cycle: (1/1)
--------------------------------------------------------------------------------
 
 Cartesian coordinates (xcart) [bohr]
  2.97631865929489E+00  1.71837837912920E+00  0.00000000000000E+00
  2.97631865929489E+00 -1.71837837912920E+00 -3.47498847295358E+00
  2.97631865929489E+00 -1.71837837912920E+00  3.47498847295358E+00
 Reduced coordinates (xred)
  3.33333333333333E-01  6.66666666666667E-01  0.00000000000000E+00
  6.66666666666667E-01  3.33333333333333E-01 -9.19442350000000E-02
  6.66666666666667E-01  3.33333333333333E-01  9.19442350000000E-02
 
---SELF-CONSISTENT-FIELD CONVERGENCE--------------------------------------------
 
 getcut: wavevector=  0.0000  0.0000  0.0000  ngfft=  30  30 192
         ecut(hartree)=     30.000   => boxcut(ratio)=   2.04554
 Max number of non-self-consistent loops: 20
 k-point: [ 1 / 68 ], spin: 1
   Max resid = 3.53810E+00  (exclude nbdbuf bands). One NSCF iteration cpu-time:  0.08 [s] , wall-time:  0.40 [s]
   Max resid = 9.23620E-02  (exclude nbdbuf bands). One NSCF iteration cpu-time:  0.07 [s] , wall-time:  0.07 [s]
   Max resid = 6.84171E-04  (exclude nbdbuf bands). One NSCF iteration cpu-time:  0.06 [s] , wall-time:  0.06 [s]
   Printing residuals every mod(20) iterations...
   NSCF loop completed after 13 iterations
 
 -------------------------------------------------------------------------------------------------
 Ekinetic   = :     0.000000E+00 Ha ,    0.000000E+00 eV
 Evext_l    = :     0.000000E+00 Ha ,    0.000000E+00 eV
 Evext_nl   = :     0.000000E+00 Ha ,    0.000000E+00 eV
 Epsp_core  = :     7.631172E-01 Ha ,    2.076547E+01 eV
 Ehartree   = :     0.000000E+00 Ha ,    0.000000E+00 eV
 Exc_ks     = :    -1.644486E+01 Ha ,   -4.474874E+02 eV
 Enn        = :     1.895732E+02 Ha ,    5.158549E+03 eV
 -------------------------------------------------------------------------------------------------
 Etot       = :     1.738915E+02 Ha ,    4.731827E+03 eV
 -------------------------------------------------------------------------------------------------
 
 fftdatar_write: About to write data to: mos2o_DS2_TIM1_DEN with iomode: IO_MODE_FORTRAN
 IO operation , wall:  0.01 [s] , cpu:  0.00 [s] <<< TIME
- Creating HDf5 file with MPI-IO support: mos2o_DS2_GSR.nc
 Integrated electronic density in atomic spheres:
 ------------------------------------------------
 Atom  Sphere_radius  Integrated_density
    1        2.00000         10.42349198
    2        2.00000          3.79831482
    3        2.00000          3.79833192
 Write iteration in HIST netCDF file (also create it)
 
---OUTPUT-----------------------------------------------------------------------
 
 Cartesian coordinates (xcart) [bohr]
  2.97631865929489E+00  1.71837837912920E+00  0.00000000000000E+00
  2.97631865929489E+00 -1.71837837912920E+00 -3.47498847295358E+00
  2.97631865929489E+00 -1.71837837912920E+00  3.47498847295358E+00
 Reduced coordinates (xred)
  3.33333333333333E-01  6.66666666666667E-01  0.00000000000000E+00
  6.66666666666667E-01  3.33333333333333E-01 -9.19442350000000E-02
  6.66666666666667E-01  3.33333333333333E-01  9.19442350000000E-02
 Cartesian forces (fcart) [Ha/bohr]; max,rms= 1.00000+100 1.00000+100 (free atoms)
  9.99999999990000E+99  9.99999999990000E+99  9.99999999990000E+99
  9.99999999990000E+99  9.99999999990000E+99  9.99999999990000E+99
  9.99999999990000E+99  9.99999999990000E+99  9.99999999990000E+99
 Gradient of E wrt nuclear positions in reduced coordinates (gred)
  2.17881647807093+100 -8.13145379660118+100 -3.77945226573349+101
  2.17881647807093+100 -8.13145379660118+100 -3.77945226573349+101
  2.17881647807093+100 -8.13145379660118+100 -3.77945226573349+101
 Total energy (etotal) [Ha]= -9.23435497077835E+01
 fconv : at Broyd/MD step   1, gradients have not converged yet. 
  max grad (force/stress) = 1.0000+100 > tolmxf= 5.0000E-04 ha/bohr (free atoms)
 
Inverse hessian has been initialized.
 EXIT:           1           1
 {mover_itime: 1 , wall_time: ' 01:09 [minutes] '} <<< TIME
 
--- Iteration: ( 2/10) Internal Cycle: (1/1)
--------------------------------------------------------------------------------
 
 Cartesian coordinates (xcart) [bohr]
  2.97631865929489E+00  1.71837837912920E+00  0.00000000000000E+00
  2.97631865929489E+00 -1.71837837912920E+00 -3.47498847295358E+00
  2.97631865929489E+00 -1.71837837912920E+00  3.47498847295358E+00
 Reduced coordinates (xred)
  3.33333333333333E-01  6.66666666666667E-01  0.00000000000000E+00
  6.66666666666667E-01  3.33333333333333E-01 -9.19442350000000E-02
  6.66666666666667E-01  3.33333333333333E-01  9.19442350000000E-02
 
---SELF-CONSISTENT-FIELD CONVERGENCE--------------------------------------------
 
 getcut: wavevector=  0.0000  0.0000  0.0000  ngfft=  30  30 192
         ecut(hartree)=     30.000   => boxcut(ratio)=   2.04554
 Max number of non-self-consistent loops: 20
 k-point: [ 1 / 68 ], spin: 1
   Max resid = 7.13793E-13  (exclude nbdbuf bands). One NSCF iteration cpu-time:  0.02 [s] , wall-time:  0.02 [s]
   NSCF loop completed after 1 iterations
 
 -------------------------------------------------------------------------------------------------
 Ekinetic   = :     0.000000E+00 Ha ,    0.000000E+00 eV
 Evext_l    = :     0.000000E+00 Ha ,    0.000000E+00 eV
 Evext_nl   = :     0.000000E+00 Ha ,    0.000000E+00 eV
 Epsp_core  = :     7.631172E-01 Ha ,    2.076547E+01 eV
 Ehartree   = :     0.000000E+00 Ha ,    0.000000E+00 eV
 Exc_ks     = :    -1.644486E+01 Ha ,   -4.474874E+02 eV
 Enn        = :     1.895732E+02 Ha ,    5.158549E+03 eV
 -------------------------------------------------------------------------------------------------
 Etot       = :     1.738915E+02 Ha ,    4.731827E+03 eV
 -------------------------------------------------------------------------------------------------
 
 fftdatar_write: About to write data to: mos2o_DS2_TIM2_DEN with iomode: IO_MODE_FORTRAN
 IO operation , wall:  0.01 [s] , cpu:  0.00 [s] <<< TIME
- Creating HDf5 file with MPI-IO support: mos2o_DS2_GSR.nc
 Integrated electronic density in atomic spheres:
 ------------------------------------------------
 Atom  Sphere_radius  Integrated_density
    1        2.00000         10.42349198
    2        2.00000          3.79831482
    3        2.00000          3.79833192
 Write iteration in HIST netCDF file
 
---OUTPUT-----------------------------------------------------------------------
 
 Cartesian coordinates (xcart) [bohr]
  2.97631865929489E+00  1.71837837912920E+00  0.00000000000000E+00
  2.97631865929489E+00 -1.71837837912920E+00 -3.47498847295358E+00
  2.97631865929489E+00 -1.71837837912920E+00  3.47498847295358E+00
 Reduced coordinates (xred)
  3.33333333333333E-01  6.66666666666667E-01  0.00000000000000E+00
  6.66666666666667E-01  3.33333333333333E-01 -9.19442350000000E-02
  6.66666666666667E-01  3.33333333333333E-01  9.19442350000000E-02
 Cartesian forces (fcart) [Ha/bohr]; max,rms= 1.00000+100 1.00000+100 (free atoms)
  9.99999999990000E+99  9.99999999990000E+99  9.99999999990000E+99
  9.99999999990000E+99  9.99999999990000E+99  9.99999999990000E+99
  9.99999999990000E+99  9.99999999990000E+99  9.99999999990000E+99
 Gradient of E wrt nuclear positions in reduced coordinates (gred)
  2.17881647807093+100 -8.13145379660118+100 -3.77945226573349+101
  2.17881647807093+100 -8.13145379660118+100 -3.77945226573349+101
  2.17881647807093+100 -8.13145379660118+100 -3.77945226573349+101
 Total energy (etotal) [Ha]= -9.23435497077835E+01
 
 Difference of energy with previous step (new-old):
           Absolute (Ha)= 0.00000E+00
           Relative     = 0.00000E+00
 fconv : at Broyd/MD step   2, gradients have not converged yet. 
  max grad (force/stress) = 1.0000+100 > tolmxf= 5.0000E-04 ha/bohr (free atoms)
 
 EXIT:           1           1
 {mover_itime: 2 , wall_time: '  5.93 [s] '} <<< TIME
 
--- Iteration: ( 3/10) Internal Cycle: (1/1)
--------------------------------------------------------------------------------
 
 Cartesian coordinates (xcart) [bohr]
                   NaN                   NaN                   NaN
                   NaN                   NaN                   NaN
                   NaN                   NaN                   NaN
 Reduced coordinates (xred)
                   NaN                   NaN                   NaN
                   NaN                   NaN                   NaN
                   NaN                   NaN                   NaN
 WARNING: ATOMIC COORDINATES WERE SYMMETRIZED
 DIFFERENCES:
                     NaN                     NaN                     NaN
                     NaN                     NaN                     NaN
                     NaN                     NaN                     NaN
 
---SELF-CONSISTENT-FIELD CONVERGENCE--------------------------------------------
 
 getcut: wavevector=  0.0000  0.0000  0.0000  ngfft=  30  30 192
         ecut(hartree)=     30.000   => boxcut(ratio)=   2.04554
forrtl: severe (174): SIGSEGV, segmentation fault occurred
Image              PC                Routine            Line        Source             
libifcoremt.so.5   00007FA3F7E2D359  for__signal_handl     Unknown  Unknown
libpthread-2.17.s  00007FA3F2E99630  Unknown               Unknown  Unknown
abinit             0000000001F13C49  Unknown               Unknown  Unknown
abinit             000000000172C114  Unknown               Unknown  Unknown
abinit             0000000000735858  Unknown               Unknown  Unknown
abinit             000000000071B156  Unknown               Unknown  Unknown
abinit             000000000071AB2B  Unknown               Unknown  Unknown
abinit             00000000006887FC  Unknown               Unknown  Unknown
abinit             0000000000665FD1  Unknown               Unknown  Unknown
abinit             00000000004419F0  Unknown               Unknown  Unknown
abinit             0000000000426719  Unknown               Unknown  Unknown
abinit             000000000040F4E4  Unknown               Unknown  Unknown
abinit             000000000040CB22  Unknown               Unknown  Unknown
libc-2.17.so       00007FA3EFF49555  __libc_start_main     Unknown  Unknown
abinit             000000000040CA29  Unknown               Unknown  Unknown
