  ABINIT 9.10.3
  
-instrng: 54 lines of input have been read from file mos2.abi
 
 
--- !COMMENT
src_file: m_dtfil.F90
src_line: 1441
message: |
    Output file: mos2.abo already exists.
...
 
 
--- !COMMENT
src_file: m_dtfil.F90
src_line: 1465
message: |
    Renaming old: mos2.abo to: mos2.abo0003
...
 

.Version 9.10.3 of ABINIT 
.(MPI version, prepared for a x86_64_linux_intel2021.6 computer) 

.Copyright (C) 1998-2022 ABINIT group . 
 ABINIT comes with ABSOLUTELY NO WARRANTY.
 It is free software, and you are welcome to redistribute it
 under certain conditions (GNU General Public License,
 see ~abinit/COPYING or http://www.gnu.org/copyleft/gpl.txt).

 ABINIT is a project of the Universite Catholique de Louvain,
 Corning Inc. and other collaborators, see ~abinit/doc/developers/contributors.txt .
 Please read https://docs.abinit.org/theory/acknowledgments for suggested
 acknowledgments of the ABINIT effort.
 For more information, see https://www.abinit.org .

.Starting date : Mon  5 May 2025.
- ( at 17h09 )
  
 
 ++++++++++++++++++++++++++++++++++++++++++++++++++++++++++++++++++++++++++++++
 
 === Build Information === 
  Version       : 9.10.3
  Build target  : x86_64_linux_intel2021.6
  Build date    : 20240126
 
 === Compiler Suite === 
  C compiler       : intel2021.6
  C++ compiler     : gnu2021.6
  Fortran compiler : intel2021.6
  CFLAGS           : -g -O2
  CXXFLAGS         : -g -O2 -mtune=native -march=native
  FCFLAGS          : -g -extend-source -nofpscomp     -I/shared/ucl/apps/NetCDF/4.9.2-in ...
  FC_LDFLAGS       :   -static-intel -static-libgcc
 
 === Optimizations === 
  Debug level        : basic
  Optimization level : standard
  Architecture       : intel_xeon
 
 === Multicore === 
  Parallel build : /shared/ucl/apps/intel/2020/impi/2019.6.166/intel64
  Parallel I/O   : 
  openMP support : 
  GPU support    : 
 
 === Connectors / Fallbacks === 
  LINALG flavor  : mkl
  FFT flavor     : dfti
  HDF5           : yes
  NetCDF         : yes
  NetCDF Fortran : yes
  LibXC          : yes
  Wannier90      : no
 
 === Experimental features === 
  Exports             : 
  GW double-precision : 
 
 ++++++++++++++++++++++++++++++++++++++++++++++++++++++++++++++++++++++++++++++
 

 ++++++++++++++++++++++++++++++++++++++++++++++++++++++++++++++++++++++++++++++
 Default optimizations:
   -O3


 Optimizations for 43_ptgroups:
   -O0


 ++++++++++++++++++++++++++++++++++++++++++++++++++++++++++++++++++++++++++++++


 ++++++++++++++++++++++++++++++++++++++++++++++++++++++++++++++++++++++++++++++
 CPP options activated during the build:

                  CC_INTEL                   CXX_GNU                  FC_INTEL
 
                 HAVE_DFTI HAVE_FC_ALLOCATABLE_DT...             HAVE_FC_ASYNC
 
  HAVE_FC_COMMAND_ARGUMENT      HAVE_FC_COMMAND_LINE        HAVE_FC_CONTIGUOUS
 
           HAVE_FC_CPUTIME              HAVE_FC_EXIT             HAVE_FC_FLUSH
 
             HAVE_FC_GAMMA   HAVE_FC_IEEE_ARITHMETIC   HAVE_FC_IEEE_EXCEPTIONS
 
             HAVE_FC_IOMSG     HAVE_FC_ISO_C_BINDING  HAVE_FC_ISO_FORTRAN_2008
 
        HAVE_FC_LONG_LINES        HAVE_FC_MOVE_ALLOC  HAVE_FC_ON_THE_FLY_SHAPE
 
           HAVE_FC_PRIVATE         HAVE_FC_PROTECTED           HAVE_FC_SHIFTLR
 
         HAVE_FC_STREAM_IO                 HAVE_HDF5             HAVE_HDF5_MPI
 
        HAVE_LIBPAW_ABINIT      HAVE_LIBTETRA_ABINIT                HAVE_LIBXC
 
         HAVE_LINALG_AXPBY        HAVE_LINALG_GEMM3M         HAVE_LINALG_GEMMT
 
  HAVE_LINALG_MKL_IMATCOPY   HAVE_LINALG_MKL_OMATADD  HAVE_LINALG_MKL_OMATCOPY
 
   HAVE_LINALG_MKL_THREADS     HAVE_LINALG_SCALAPACK                  HAVE_MPI
 
                 HAVE_MPI2       HAVE_MPI_IALLGATHER       HAVE_MPI_IALLREDUCE
 
        HAVE_MPI_IALLTOALL       HAVE_MPI_IALLTOALLV           HAVE_MPI_IBCAST
 
         HAVE_MPI_IGATHERV        HAVE_MPI_INTEGER16               HAVE_MPI_IO
 
 HAVE_MPI_TYPE_CREATE_S...               HAVE_NETCDF       HAVE_NETCDF_FORTRAN
 
   HAVE_NETCDF_FORTRAN_MPI           HAVE_NETCDF_MPI             HAVE_OS_LINUX
 
         HAVE_TIMER_ABINIT                                                      
 ++++++++++++++++++++++++++++++++++++++++++++++++++++++++++++++++++++++++++++++

- input  file    -> mos2.abi
- output file    -> mos2.abo
- root for input  files -> mos2i
- root for output files -> mos2o
 
 Netcdf library supports MPI-IO
-instrng: 54 lines of input have been read from file mos2.abi
 
 For atom type 1, psp file is ./persudo/Mo.psp8
 For atom type 2, psp file is ./persudo/S.psp8
  read the values zionpsp= 14.0 , pspcod=   8 , lmax=   2
  read the values zionpsp=  6.0 , pspcod=   8 , lmax=   2
 
 inpspheads: deduce mpsang = 3, n1xccc = 2501.

======================================================= 
 invars1m : enter jdtset= 1
 
 symlatt: the Bravais lattice is hP (primitive hexagonal)
  xred   is defined in input file
 ingeo: takes atomic coordinates from input array xred
 
 symlatt: the Bravais lattice is hP (primitive hexagonal)
 
 symlatt: the Bravais lattice is hP (primitive hexagonal)
 
--- !COMMENT
src_file: m_symfind.F90
src_line: 995
message: |
    The Bravais lattice determined only from the primitive
    vectors, bravais(1)=  6, is more symmetric
    than the real one, iholohedry=  1, obtained by taking into
    account the atomic positions. Start deforming the primitive vector set.
...
 
 
 symlatt: the Bravais lattice is oC (one-face-centered orthorhombic)
 
--- !COMMENT
src_file: m_symfind.F90
src_line: 1004
message: |
    The Bravais lattice determined from modified primitive
    vectors, bravais(1)=  3, has a lower symmetry than before,
    but is still more symmetric than the real one, iholohedry=  1
    obtained by taking into account the atomic positions.
...
 
 
 symlatt: the Bravais lattice is aP (primitive triclinic)
 symspgr: spgroup=   1  P1   (=C1^1)

======================================================= 
 invars1m : enter jdtset= 2
 
 symlatt: the Bravais lattice is hP (primitive hexagonal)
  xred   is defined in input file
 ingeo: takes atomic coordinates from input array xred
 
 symlatt: the Bravais lattice is hP (primitive hexagonal)
 
 symlatt: the Bravais lattice is hP (primitive hexagonal)
 
--- !COMMENT
src_file: m_symfind.F90
src_line: 995
message: |
    The Bravais lattice determined only from the primitive
    vectors, bravais(1)=  6, is more symmetric
    than the real one, iholohedry=  1, obtained by taking into
    account the atomic positions. Start deforming the primitive vector set.
...
 
 
 symlatt: the Bravais lattice is oC (one-face-centered orthorhombic)
 
--- !COMMENT
src_file: m_symfind.F90
src_line: 1004
message: |
    The Bravais lattice determined from modified primitive
    vectors, bravais(1)=  3, has a lower symmetry than before,
    but is still more symmetric than the real one, iholohedry=  1
    obtained by taking into account the atomic positions.
...
 
 
 symlatt: the Bravais lattice is aP (primitive triclinic)
 symspgr: spgroup=   1  P1   (=C1^1)
 Real(R)+Recip(G) space primitive vectors, cartesian coordinates (Bohr,Bohr^-1):
 R(1)=  2.9763187 -5.1551351  0.0000000  G(1)=  0.1679928 -0.0969907  0.0000000
 R(2)=  2.9763187  5.1551351  0.0000000  G(2)=  0.1679928  0.0969907  0.0000000
 R(3)=  0.0000000  0.0000000 37.7945227  G(3)=  0.0000000  0.0000000  0.0264589
 Unit cell volume ucvol=  1.1597873E+03 bohr^3
 Unit cell volume ucvol=  1.1597873E+03 bohr^3
 Angles (23,13,12)=  9.00000000E+01  9.00000000E+01  1.20000000E+02 degrees
 Angles (23,13,12)=  9.00000000E+01  9.00000000E+01  1.20000000E+02 degrees
  0.111995176421164       5.599758821079725E-002  0.257973639910538     
 
 mknormpath : total number of points on the path:       77
 
 Number of divisions for each segment of the normalized path:
 0.00000 0.00000 0.00000 ==>  0.33333 0.33333 0.00000 ( ndiv:    20 )
 0.33333 0.33333 0.00000 ==>  0.50000 0.00000 0.00000 ( ndiv:    10 )
 0.50000 0.00000 0.00000 ==>  1.00000 1.00000 1.00000 ( ndiv:    46 )
 
 
 invars2: take the default value of fband=  1.25000000E-01
 
--- !WARNING
src_file: m_invars2.F90
src_line: 2098
message: |
    nbdbuf is not specified in input, using `nbdbuf = 2*nspinor` that may be too small!
    As a consequence, the NSCF cycle may have problems to converge the last bands within nstep iterations.
    To avoid this problem specify nbdbuf in the input file and adjust nband accordingly.
...
 
 Real(R)+Recip(G) space primitive vectors, cartesian coordinates (Bohr,Bohr^-1):
 R(1)=  2.9763187 -5.1551351  0.0000000  G(1)=  0.1679928 -0.0969907  0.0000000
 R(2)=  2.9763187  5.1551351  0.0000000  G(2)=  0.1679928  0.0969907  0.0000000
 R(3)=  0.0000000  0.0000000 37.7945227  G(3)=  0.0000000  0.0000000  0.0264589
 Unit cell volume ucvol=  1.1597873E+03 bohr^3
 Unit cell volume ucvol=  1.1597873E+03 bohr^3
 Angles (23,13,12)=  9.00000000E+01  9.00000000E+01  1.20000000E+02 degrees
 Angles (23,13,12)=  9.00000000E+01  9.00000000E+01  1.20000000E+02 degrees
  0.111995176421164       5.599758821079725E-002  0.257973639910538     
 
 mknormpath : total number of points on the path:       77
 
 Number of divisions for each segment of the normalized path:
 0.00000 0.00000 0.00000 ==>  0.33333 0.33333 0.00000 ( ndiv:    20 )
 0.33333 0.33333 0.00000 ==>  0.50000 0.00000 0.00000 ( ndiv:    10 )
 0.50000 0.00000 0.00000 ==>  1.00000 1.00000 1.00000 ( ndiv:    46 )
 
 
 LMac pawujat is:            0
 LMac pawujat is:            0
 For input ecut=  1.200000E+01 best grid ngfft=      20      20     120
       max ecut=  1.243697E+01
 
 ==== FFT mesh ====
  FFT mesh divisions ........................    20   20  120
  Augmented FFT divisions ...................    21   21  120
  FFT algorithm .............................   512
  FFT cache size ............................    16
 getmpw: optimal value of mpw= 2310
 For input ecut=  1.200000E+01 best grid ngfft=      20      20     120
       max ecut=  1.243697E+01
 
 ==== FFT mesh ====
  FFT mesh divisions ........................    20   20  120
  Augmented FFT divisions ...................    21   21  120
  FFT algorithm .............................   512
  FFT cache size ............................    16
 getmpw: optimal value of mpw= 2327
 
 DATASET    1 : space group P1 (#  1); Bravais aP (primitive triclinic)
 
 getdim_nloc: deduce lmnmax  =  18, lnmax  =   6,
                      lmnmaxso=  18, lnmaxso=   6.
memory: analysis of memory needs
================================================================================
 Values of the parameters that define the memory need for DATASET  1.
     intxc =       0    ionmov =       0      iscf =       7    lmnmax =       6
     lnmax =       6     mgfft =     120  mpssoang =       3    mqgrid =    5894
     natom =       3  nloc_mem =       1    nspden =       1   nspinor =       1
    nsppol =       1      nsym =       1    n1xccc =    2501    ntypat =       2
    occopt =       1   xclevel =       2
-    mband =          14        mffmem =           1         mkmem =           2
       mpw =        2310          nfft =       48000          nkpt =           2
================================================================================
P This job should need less than                      17.285 Mbytes of memory.
  Rough estimation (10% accuracy) of disk space for files :
_ WF disk file :      0.989 Mbytes ; DEN or POT disk file :      0.368 Mbytes.
================================================================================
 
 Biggest array : f_fftgr(disk), with      5.8614 MBytes.
 memana : allocated an array of      5.861 Mbytes, for testing purposes.
 memana: allocated      17.285Mbytes, for testing purposes. 
 The job will continue.
 
 DATASET    2 : space group P1 (#  1); Bravais aP (primitive triclinic)
 
 getdim_nloc: deduce lmnmax  =  18, lnmax  =   6,
                      lmnmaxso=  18, lnmaxso=   6.
memory: analysis of memory needs
================================================================================
 Values of the parameters that define the memory need for DATASET  2.
     intxc =       0    ionmov =       0      iscf =      -2    lmnmax =       6
     lnmax =       6     mgfft =     120  mpssoang =       3    mqgrid =    5894
     natom =       3  nloc_mem =       1    nspden =       1   nspinor =       1
    nsppol =       1      nsym =       1    n1xccc =    2501    ntypat =       2
    occopt =       1   xclevel =       2
-    mband =           8        mffmem =           1         mkmem =          77
       mpw =        2327          nfft =       48000          nkpt =          77
================================================================================
P This job should need less than                      34.412 Mbytes of memory.
  Rough estimation (10% accuracy) of disk space for files :
_ WF disk file :     21.874 Mbytes ; DEN or POT disk file :      0.368 Mbytes.
================================================================================
 
 Biggest array : cg(disk), with     21.8744 MBytes.
 memana : allocated an array of     21.874 Mbytes, for testing purposes.
 memana: allocated      34.412Mbytes, for testing purposes. 
 The job will continue.
--------------------------------------------------------------------------------
------------- Echo of variables that govern the present computation ------------
--------------------------------------------------------------------------------
-
- outvars: echo of selected default values                                      
-   iomode0 =  0 , fftalg0 =512 , wfoptalg0 =  0
-
- outvars: echo of global parameters not present in the input file              
-  max_nthreads =    0
-
 -outvars: echo values of preprocessed input variables --------
 
 These variables are accessible in NetCDF format (mos2o_OUT.nc)

            acell      5.9526373186E+00  5.9526373186E+00  3.7794522658E+01 Bohr
              amu      9.59400000E+01  3.20660000E+01
      chksymbreak           0
             ecut      1.20000000E+01 Hartree
           enunit1          0
           enunit2          1
-          fftalg         512
           getden1          0
           getden2         -1
             iscf1          7
             iscf2         -2
           istwfk1       2    0
           istwfk2       2    0    0    0    0    0    0    0    0    0
                         0    0    0    0    0    0    0    0    0    0
                         0    0    0    0    0    0    0    0    0    0
                         3    0    0    0    0    0    0    0    0    0
                         0    0    0    0    0    0    0    0    0    0
                       outvar_i_n : Printing only first  50 k-points.
              ixc          11
           jdtset        1    2
              kpt1     0.00000000E+00  0.00000000E+00  0.00000000E+00
                       3.33333333E-01  0.00000000E+00  0.00000000E+00
              kpt2     0.00000000E+00  0.00000000E+00  0.00000000E+00
                       1.66666667E-02  1.66666667E-02  0.00000000E+00
                       3.33333333E-02  3.33333333E-02  0.00000000E+00
                       5.00000000E-02  5.00000000E-02  0.00000000E+00
                       6.66666667E-02  6.66666667E-02  0.00000000E+00
                       8.33333333E-02  8.33333333E-02  0.00000000E+00
                       1.00000000E-01  1.00000000E-01  0.00000000E+00
                       1.16666667E-01  1.16666667E-01  0.00000000E+00
                       1.33333333E-01  1.33333333E-01  0.00000000E+00
                       1.50000000E-01  1.50000000E-01  0.00000000E+00
                       1.66666667E-01  1.66666667E-01  0.00000000E+00
                       1.83333333E-01  1.83333333E-01  0.00000000E+00
                       2.00000000E-01  2.00000000E-01  0.00000000E+00
                       2.16666667E-01  2.16666667E-01  0.00000000E+00
                       2.33333333E-01  2.33333333E-01  0.00000000E+00
                       2.50000000E-01  2.50000000E-01  0.00000000E+00
                       2.66666667E-01  2.66666667E-01  0.00000000E+00
                       2.83333333E-01  2.83333333E-01  0.00000000E+00
                       3.00000000E-01  3.00000000E-01  0.00000000E+00
                       3.16666667E-01  3.16666667E-01  0.00000000E+00
                       3.33333333E-01  3.33333333E-01  0.00000000E+00
                       3.50000000E-01  3.00000000E-01  0.00000000E+00
                       3.66666667E-01  2.66666667E-01  0.00000000E+00
                       3.83333333E-01  2.33333333E-01  0.00000000E+00
                       4.00000000E-01  2.00000000E-01  0.00000000E+00
                       4.16666667E-01  1.66666667E-01  0.00000000E+00
                       4.33333333E-01  1.33333333E-01  0.00000000E+00
                       4.50000000E-01  1.00000000E-01  0.00000000E+00
                       4.66666667E-01  6.66666667E-02  0.00000000E+00
                       4.83333333E-01  3.33333333E-02  0.00000000E+00
                       5.00000000E-01  0.00000000E+00  0.00000000E+00
                       5.10869565E-01  2.17391304E-02  2.17391304E-02
                       5.21739130E-01  4.34782609E-02  4.34782609E-02
                       5.32608696E-01  6.52173913E-02  6.52173913E-02
                       5.43478261E-01  8.69565217E-02  8.69565217E-02
                       5.54347826E-01  1.08695652E-01  1.08695652E-01
                       5.65217391E-01  1.30434783E-01  1.30434783E-01
                       5.76086957E-01  1.52173913E-01  1.52173913E-01
                       5.86956522E-01  1.73913043E-01  1.73913043E-01
                       5.97826087E-01  1.95652174E-01  1.95652174E-01
                       6.08695652E-01  2.17391304E-01  2.17391304E-01
                       6.19565217E-01  2.39130435E-01  2.39130435E-01
                       6.30434783E-01  2.60869565E-01  2.60869565E-01
                       6.41304348E-01  2.82608696E-01  2.82608696E-01
                       6.52173913E-01  3.04347826E-01  3.04347826E-01
                       6.63043478E-01  3.26086957E-01  3.26086957E-01
                       6.73913043E-01  3.47826087E-01  3.47826087E-01
                       6.84782609E-01  3.69565217E-01  3.69565217E-01
                       6.95652174E-01  3.91304348E-01  3.91304348E-01
                       7.06521739E-01  4.13043478E-01  4.13043478E-01
                       outvar_i_n : Printing only first  50 k-points.
           kptopt1          1
           kptopt2         -3
         kptrlatt        3    0    0      0    1    0      0    0    1
          kptrlen1     5.95263732E+00
          kptrlen2     3.00000000E+01
P           mkmem1          2
P           mkmem2         77
            natom           3
            nband1         14
            nband2          8
           nbdbuf1          0
           nbdbuf2          2
           ndtset           2
           ndivsm1          0
           ndivsm2         10
            ngfft          20      20     120
             nkpt1          2
             nkpt2         77
            nstep          10
             nsym           1
           ntypat           2
              occ      2.000000  2.000000  2.000000  2.000000  2.000000  2.000000
                       2.000000  2.000000  2.000000  2.000000  2.000000  2.000000
                       2.000000  0.000000
            rprim      5.0000000000E-01 -8.6602540378E-01  0.0000000000E+00
                       5.0000000000E-01  8.6602540378E-01  0.0000000000E+00
                       0.0000000000E+00  0.0000000000E+00  1.0000000000E+00
           shiftk1     0.00000000E+00  0.00000000E+00  0.00000000E+00
           shiftk2     5.00000000E-01  5.00000000E-01  5.00000000E-01
          spgroup           1
           toldfe1     1.00000000E-06 Hartree
           toldfe2     0.00000000E+00 Hartree
           tolwfr1     0.00000000E+00
           tolwfr2     1.00000000E-12
            typat      1  2  2
              wtk1       0.33333    0.66667
              wtk2       1.00000    1.00000    1.00000    1.00000    1.00000    1.00000
                         1.00000    1.00000    1.00000    1.00000    1.00000    1.00000
                         1.00000    1.00000    1.00000    1.00000    1.00000    1.00000
                         1.00000    1.00000    1.00000    1.00000    1.00000    1.00000
                         1.00000    1.00000    1.00000    1.00000    1.00000    1.00000
                         1.00000    1.00000    1.00000    1.00000    1.00000    1.00000
                         1.00000    1.00000    1.00000    1.00000    1.00000    1.00000
                         1.00000    1.00000    1.00000    1.00000    1.00000    1.00000
                         1.00000    1.00000
                       outvars : Printing only first  50 k-points.
           xangst      1.5750000000E+00  9.0932667397E-01  0.0000000000E+00
                       1.5750000000E+00 -9.0932667397E-01 -1.8388847000E+00
                       1.5750000000E+00 -9.0932667397E-01  1.8388847000E+00
            xcart      2.9763186593E+00  1.7183783791E+00  0.0000000000E+00
                       2.9763186593E+00 -1.7183783791E+00 -3.4749884730E+00
                       2.9763186593E+00 -1.7183783791E+00  3.4749884730E+00
             xred      3.3333333333E-01  6.6666666667E-01  0.0000000000E+00
                       6.6666666667E-01  3.3333333333E-01 -9.1944235000E-02
                       6.6666666667E-01  3.3333333333E-01  9.1944235000E-02
            znucl       42.00000   16.00000
 
================================================================================
 
 chkinp: Checking input parameters for consistency, jdtset=   1.
 
 chkinp: Checking input parameters for consistency, jdtset=   2.
 DATA TYPE INFORMATION: 
 REAL:      Data type name: REAL(DP) 
            Kind value:      8
            Precision:      15
            Smallest nonnegligible quantity relative to 1: 0.22204460E-015
            Smallest positive number:                      0.22250739E-307
            Largest representable number:                  0.17976931E+309
 INTEGER:   Data type name: INTEGER(default) 
            Kind value: 4
            Bit size:   32
            Largest representable number: 2147483647
 LOGICAL:   Data type name: LOGICAL 
            Kind value: 4
 CHARACTER: Data type name: CHARACTER             Kind value: 1

  ==== OpenMP parallelism is OFF ====
 
  ==== Using MPI-2 specifications ==== 
  MPI-IO support is ON
  xmpi_tag_ub ................   1073741823
  xmpi_bsize_ch ..............            1
  xmpi_bsize_int .............            4
  xmpi_bsize_sp ..............            4
  xmpi_bsize_dp ..............            8
  xmpi_bsize_spc .............            8
  xmpi_bsize_dpc .............           16
  xmpio_bsize_frm ............            4
  xmpi_address_kind ..........            8
  xmpi_offset_kind ...........            8
  MPI_WTICK ..................   4.009470748998970E-010
 
================================================================================
== DATASET  1 ==================================================================
-   mpi_nproc: 1, omp_nthreads: -1 (-1 if OMP is not activated)
 
 
--- !COMMENT
src_file: m_xgScalapack.F90
src_line: 235
message: |
    xgScalapack in auto mode
...
 
 
 getdim_nloc: deduce lmnmax  =  18, lnmax  =   6,
                      lmnmaxso=  18, lnmaxso=   6.
 Exchange-correlation functional for the present dataset will be:
  GGA: Perdew-Burke-Ernzerhof functional - ixc=11
 Citation for XC functional:
  J.P.Perdew, K.Burke, M.Ernzerhof, PRL 77, 3865 (1996)
 
 Unit cell volume ucvol=  1.1597873E+03 bohr^3
 Angles (23,13,12)=  9.00000000E+01  9.00000000E+01  1.20000000E+02 degrees
 
 getcut: wavevector=  0.0000  0.0000  0.0000  ngfft=  20  20 120
         ecut(hartree)=     12.000   => boxcut(ratio)=   2.03609
- pspini: atom type   1  psp file is ./persudo/Mo.psp8
- pspatm: opening atomic psp file    ./persudo/Mo.psp8
- Mo    ONCVPSP-3.2.3.1  r_core=   1.45541   1.45541   1.35488
- 42.00000  14.00000    170510                znucl, zion, pspdat
    8   11    2    4       600   0.00000      pspcod,pspxc,lmax,lloc,mmax,r2well
    5.99000000000000    3.00000000000000    0.00000000000000   rchrg,fchrg,qchrg
     nproj     2     2     2
     extension_switch     1
  valence charge (before rescaling) integrates to:    13.9106199290666     
  pspatm : epsatm=   15.95693586
         --- l  ekb(1:nproj) -->
             0   13.833287    1.350687
             1    8.015347    1.134034
             2    2.765699    0.969071
 pspatm: atomic psp has been read  and splines computed
 
- pspini: atom type   2  psp file is ./persudo/S.psp8
- pspatm: opening atomic psp file    ./persudo/S.psp8
- S     ONCVPSP-4.0.1  r_core=   1.45687   1.45687   1.45687
- 16.00000   6.00000    220131                znucl, zion, pspdat
    8   11    2    4       600   0.00000      pspcod,pspxc,lmax,lloc,mmax,r2well
    5.99000000000000    6.00000000000000    0.00000000000000   rchrg,fchrg,qchrg
     nproj     2     2     2
     extension_switch     1
  valence charge (before rescaling) integrates to:    5.98952054080779     
  pspatm : epsatm=    9.04179351
         --- l  ekb(1:nproj) -->
             0    6.774234    0.542270
             1    3.022426    0.737017
             2   -5.033160   -1.531047
 pspatm: atomic psp has been read  and splines computed
 
   8.85053595E+02                                ecore*ucvol(ha*bohr**3)
 ==== Info on pseudopotentials ====
  Norm-conserving pseudopotentials
  Number of pseudopotentials ..    2
  Number of types of atoms   ..    2
  Scalar calculation (no spin-orbit term)
  Nonlocal part applied using Legendre polynomials
  Max number of non-local projectors over l and type   2
  Highest angular momentum +1 .......   3
  Max number of (l,n)   components ..   6
  Max number of (l,m,n) components ..   6
 
 Pseudo-Core Charge Info: 
   Number of radial points for pseudo-core charge .. 2501
   XC core-correction treatment (optnlxccc) ........    1
   Radius for pseudo-core charge for each type ..... 
 
  - Atom type    1 has pseudo-core radius ..  5.9900
  - Atom type    2 has pseudo-core radius ..  5.9900
 
 Info on the Q-grid used for form factors in spline form: 
   Number of q-points for radial functions ffspl ..   5894
   Number of q-points for vlspl ...................   5894
   vloc is computed in Reciprocal Space
   model core charge treated in real-space
 
  XC functional for type 1 is 11
  Pseudo valence available: yes
  XC functional for type 2 is 11
  Pseudo valence available: yes
 
 wfconv:    14 bands initialized randomly with npw=  1164, for ikpt=     1
 wfconv:    14 bands initialized randomly with npw=  2310, for ikpt=     2
_setup2: Arith. and geom. avg. npw (full set) are    2315.667    2315.653
 initro: for itypat=  1, take pseudo charge density from pp file
 initro: for itypat=  2, take pseudo charge density from pp file
 
================================================================================
 
 getcut: wavevector=  0.0000  0.0000  0.0000  ngfft=  20  20 120
         ecut(hartree)=     12.000   => boxcut(ratio)=   2.03609
 
 1/G**2 cut-off applied in the following step : cutoff-mode = CRYSTAL
 
 1/G**2 cut-off applied in the following step : cutoff-mode = CRYSTAL
 
 1/G**2 cut-off applied in the following step : cutoff-mode = CRYSTAL
 
--- !WARNING
src_file: m_drivexc.F90
src_line: 783
message: |
    Density went too small (lower than xc_denpos) at 12956 points
    and was set to xc_denpos =   1.00E-14. Lowest was  -0.55E-03.
    This might be due to (1) too low boxcut or (2) too low ecut for
     pseudopotential core charge, or (3) too low ecut for estimated initial density.
     Possible workarounds : increase ecut, or define the input variable densty,
     with a value larger than the guess for the decay length, or initialize your,
     density with a preliminary LDA or GGA-PBE if you are using a more exotic xc functional.
...
 
 
 ITER STEP NUMBER     1
 Max number of non-self-consistent loops: 2
 Total charge density [el/Bohr^3]
)     Maximum=    7.6739E-01  at reduced coord.    0.2500    0.6500    0.9833
)     Minimum=    1.7230E-04  at reduced coord.    0.3500    0.5000    0.7000
   Integrated=    2.6000E+01
 
 1/G**2 cut-off applied in the following step : cutoff-mode = CRYSTAL
 ETOT  1  -90.319512161780    -9.032E+01 5.713E-02 1.383E+04
 scprqt: <Vxc>= -2.0438195E-01 hartree
 
 Simple mixing update:
  residual square of the potential:    284.939217720797
{SCF_istep: 1 , Vnl|psi>: 280 , wall_time: '  3.68 [s] '} <<< TIME
 
 ITER STEP NUMBER     2
 Max number of non-self-consistent loops: 2
 Total charge density [el/Bohr^3]
)     Maximum=    1.0898E+00  at reduced coord.    0.2000    0.5000    0.0000
)     Minimum=    7.8743E-07  at reduced coord.    0.8000    0.0000    0.3833
   Integrated=    2.6000E+01
 ETOT  2  -85.471212285142     4.848E+00 7.930E-03 2.895E+04
 scprqt: <Vxc>= -1.5196629E-01 hartree
 
 Pulay update with  1 previous iterations:
 mixing of old trial potential: alpha(m:m-4)=  0.282      0.718
{SCF_istep: 2 , Vnl|psi>: 275 , wall_time: '  0.19 [s] '} <<< TIME
 
 ITER STEP NUMBER     3
 Total charge density [el/Bohr^3]
)     Maximum=    8.5664E-01  at reduced coord.    0.3000    0.5000    0.0000
)     Minimum=    2.7275E-07  at reduced coord.    0.0000    0.2000    0.6167
   Integrated=    2.6000E+01
 ETOT  3  -91.694414720948    -6.223E+00 4.579E-02 2.836E+02
 scprqt: <Vxc>= -1.5854835E-01 hartree
 
 Pulay update with  2 previous iterations:
 mixing of old trial potential: alpha(m:m-4)=  0.825      0.314E-01  0.144
{SCF_istep: 3 , Vnl|psi>: 134 , wall_time: '  0.09 [s] '} <<< TIME
 
 ITER STEP NUMBER     4
 Total charge density [el/Bohr^3]
)     Maximum=    8.5729E-01  at reduced coord.    0.3000    0.8000    0.0000
)     Minimum=    1.1581E-07  at reduced coord.    0.3500    0.6000    0.5667
   Integrated=    2.6000E+01
 ETOT  4  -91.748226875655    -5.381E-02 2.051E-03 5.455E+01
 scprqt: <Vxc>= -1.5555918E-01 hartree
 
 Pulay update with  3 previous iterations:
 mixing of old trial potential: alpha(m:m-4)=  0.641      0.327     -0.543E-02  0.379E-01
{SCF_istep: 4 , Vnl|psi>: 140 , wall_time: '  0.09 [s] '} <<< TIME
 
 ITER STEP NUMBER     5
 Total charge density [el/Bohr^3]
)     Maximum=    8.5486E-01  at reduced coord.    0.3000    0.8000    0.0000
)     Minimum=    1.0472E-07  at reduced coord.    0.3000    0.7500    0.4167
   Integrated=    2.6000E+01
 ETOT  5  -91.749035376791    -8.085E-04 5.269E-04 4.908E+01
 scprqt: <Vxc>= -1.5565893E-01 hartree
 
 Pulay update with  4 previous iterations:
 mixing of old trial potential: alpha(m:m-4)=   1.30     -0.354      0.548E-01 -0.113E-01  0.129E-01
{SCF_istep: 5 , Vnl|psi>: 139 , wall_time: '  0.09 [s] '} <<< TIME
 
 ITER STEP NUMBER     6
 Total charge density [el/Bohr^3]
)     Maximum=    8.5353E-01  at reduced coord.    0.3000    0.8000    0.0000
)     Minimum=    9.0995E-08  at reduced coord.    0.7000    0.3500    0.4833
   Integrated=    2.6000E+01
 ETOT  6  -91.751488542873    -2.453E-03 5.252E-04 1.813E+01
 scprqt: <Vxc>= -1.5589944E-01 hartree
 
 Pulay update with  5 previous iterations:
 mixing of old trial potential: alpha(m:m-4)=  0.773      0.457     -0.231      0.604E-03 -0.576E-02
{SCF_istep: 6 , Vnl|psi>: 140 , wall_time: '  0.09 [s] '} <<< TIME
 
 ITER STEP NUMBER     7
 Total charge density [el/Bohr^3]
)     Maximum=    8.5209E-01  at reduced coord.    0.3000    0.8000    0.0000
)     Minimum=    9.5685E-08  at reduced coord.    0.7000    0.3500    0.5167
   Integrated=    2.6000E+01
 ETOT  7  -91.752111061671    -6.225E-04 2.465E-04 7.951E+00
 scprqt: <Vxc>= -1.5603596E-01 hartree
 
 Pulay update with  6 previous iterations:
 mixing of old trial potential: alpha(m:m-4)=  0.716      0.213      0.197     -0.114     -0.159E-01
{SCF_istep: 7 , Vnl|psi>: 134 , wall_time: '  0.09 [s] '} <<< TIME
 
 ITER STEP NUMBER     8
 Total charge density [el/Bohr^3]
)     Maximum=    8.5202E-01  at reduced coord.    0.3000    0.5000    0.0000
)     Minimum=    9.2929E-08  at reduced coord.    0.7000    0.3500    0.4833
   Integrated=    2.6000E+01
 ETOT  8  -91.752197449180    -8.639E-05 2.689E-04 5.946E+00
 scprqt: <Vxc>= -1.5611064E-01 hartree
 
 Pulay update with  7 previous iterations:
 mixing of old trial potential: alpha(m:m-4)=   1.27     -0.148     -0.148      0.403E-01 -0.822E-03
{SCF_istep: 8 , Vnl|psi>: 139 , wall_time: '  0.09 [s] '} <<< TIME
 
 ITER STEP NUMBER     9
 Total charge density [el/Bohr^3]
)     Maximum=    8.5198E-01  at reduced coord.    0.3000    0.5000    0.0000
)     Minimum=    9.3431E-08  at reduced coord.    0.7000    0.3500    0.5167
   Integrated=    2.6000E+01
 ETOT  9  -91.752240881417    -4.343E-05 1.345E-04 4.458E+00
 scprqt: <Vxc>= -1.5619753E-01 hartree
 
 Pulay update with  7 previous iterations:
 mixing of old trial potential: alpha(m:m-4)=   1.01      0.192     -0.853E-01 -0.101     -0.276E-01
{SCF_istep: 9 , Vnl|psi>: 140 , wall_time: '  0.09 [s] '} <<< TIME
 
 ITER STEP NUMBER    10
 Total charge density [el/Bohr^3]
)     Maximum=    8.5192E-01  at reduced coord.    0.3000    0.5000    0.0000
)     Minimum=    9.3439E-08  at reduced coord.    0.7000    0.3500    0.4833
   Integrated=    2.6000E+01
 ETOT 10  -91.752283410453    -4.253E-05 1.287E-04 3.069E+00
 scprqt: <Vxc>= -1.5626237E-01 hartree
 
 Pulay update with  7 previous iterations:
 mixing of old trial potential: alpha(m:m-4)=   2.21      -1.25     -0.241      0.222      0.706E-01
 
 -------------------------------------------------------------------------------------------------
 Ekinetic   = :     2.905829E+01 Ha ,    7.907164E+02 eV
 Evext_l    = :    -5.724275E+02 Ha ,   -1.557654E+04 eV
 Evext_nl   = :     1.198568E+01 Ha ,    3.261469E+02 eV
 Epsp_core  = :     7.631172E-01 Ha ,    2.076547E+01 eV
 Ehartree   = :     2.656986E+02 Ha ,    7.230027E+03 eV
 Exc_ks     = :    -1.640372E+01 Ha ,   -4.463680E+02 eV
 Enn        = :     1.895732E+02 Ha ,    5.158549E+03 eV
 -------------------------------------------------------------------------------------------------
 Etot       = :    -9.175228E+01 Ha ,   -2.496707E+03 eV
 -------------------------------------------------------------------------------------------------
 
 Cartesian components of stress tensor (hartree/bohr^3)
  sigma(1 1)=  6.74511131E-04  sigma(3 2)=  5.83279251E-08
  sigma(2 2)=  5.76651759E-04  sigma(3 1)=  3.40441120E-08
  sigma(3 3)=  1.17968232E-03  sigma(2 1)= -8.47801429E-05
 

--- !ScfConvergenceWarning
message: |
    nstep 10 was not enough SCF cycles to converge.
...
 
 scprqt:  WARNING -
  nstep=   10 was not enough SCF cycles to converge;
  maximum energy difference=  4.253E-05 exceeds toldfe=  1.000E-06
 
 
 fftdatar_write: About to write data to: mos2o_DS1_DEN with iomode: IO_MODE_FORTRAN
 IO operation , wall:  0.05 [s] , cpu:  0.00 [s] <<< TIME
- Creating HDf5 file with MPI-IO support: mos2o_DS1_GSR.nc
 Integrated electronic density in atomic spheres:
 ------------------------------------------------
 Atom  Sphere_radius  Integrated_density
    1        2.00000         10.44089670
    2        2.00000          3.84521671
    3        2.00000          3.84512670
================================================================================
 
 ----iterations are completed or convergence reached----
 
 
 === Gap info ===
  >>>> For spin  1
   Minimum direct gap =   2.2945 [eV], located at k-point      :   0.3333  0.0000  0.0000
   Fundamental gap    =   2.0061 [eV], Top of valence bands at :   0.0000  0.0000  0.0000
                                       Bottom of conduction at :   0.3333  0.0000  0.0000
 Mean square residual over all n,k,spin=   46.357E-07; max=  12.868E-05
   0.0000  0.0000  0.0000    1  1.28680E-04 kpt; spin; max resid(k); each band:
  1.29E-09 5.74E-10 1.35E-09 5.29E-10 3.27E-08 3.47E-08 4.22E-08 3.40E-08
  6.74E-09 1.32E-08 4.31E-08 1.07E-08 2.05E-08 1.29E-04
   0.3333  0.0000  0.0000    1  6.68550E-07 kpt; spin; max resid(k); each band:
  1.33E-09 6.30E-10 1.32E-09 5.14E-10 2.96E-08 2.83E-08 1.33E-08 1.76E-08
  3.30E-08 3.17E-08 1.31E-08 1.62E-08 2.20E-08 6.69E-07
 
   outwf: writing wavefunctions to: mos2o_DS1_WFK with iomode: IO_MODE_FORTRAN_MASTER
 WFK output , wall:  0.01 [s] , cpu:  0.00 [s] <<< TIME
 prteigrs : about to open file mos2o_DS1_EIG
 Fermi (or HOMO) energy (hartree) =  -0.07784   Average Vxc (hartree)=  -0.15626
 Eigenvalues (hartree) for nkpt=   2  k points:
 kpt#   1, nband= 14, wtk=  0.33333, kpt=  0.0000  0.0000  0.0000 (reduced coord)
  -2.23028   -1.36890   -1.36587   -1.34515   -0.56864   -0.54808   -0.24776   -0.15971
  -0.11420   -0.11133   -0.09281   -0.08442   -0.07784    0.01744
 kpt#   2, nband= 14, wtk=  0.66667, kpt=  0.3333  0.0000  0.0000 (reduced coord)
  -2.22681   -1.37871   -1.36412   -1.34758   -0.52074   -0.51516   -0.22691   -0.21680
  -0.19486   -0.14942   -0.13011   -0.09532   -0.08844   -0.00412
 Total charge density [el/Bohr^3]
)     Maximum=    8.5192E-01  at reduced coord.    0.3000    0.5000    0.0000
)Next maximum=    8.5191E-01  at reduced coord.    0.3000    0.8000    0.0000
)     Minimum=    9.3439E-08  at reduced coord.    0.7000    0.3500    0.4833
)Next minimum=    9.3626E-08  at reduced coord.    0.7000    0.3500    0.5167
   Integrated=    2.6000E+01
 
 Cartesian components of stress tensor (hartree/bohr^3)
  sigma(1 1)=  6.74511131E-04  sigma(3 2)=  5.83279251E-08
  sigma(2 2)=  5.76651759E-04  sigma(3 1)=  3.40441120E-08
  sigma(3 3)=  1.17968232E-03  sigma(2 1)= -8.47801429E-05
 
-Cartesian components of stress tensor (GPa)         [Pressure= -2.3839E+01 GPa]
- sigma(1 1)=  1.98447993E+01  sigma(3 2)=  1.71606651E-03
- sigma(2 2)=  1.69656776E+01  sigma(3 1)=  1.00161219E-03
- sigma(3 3)=  3.47074464E+01  sigma(2 1)= -2.49431750E+00
 dataset: 1 , wall: 10.16 [s] , cpu:  5.86 [s] <<< TIME
 
================================================================================
== DATASET  2 ==================================================================
-   mpi_nproc: 1, omp_nthreads: -1 (-1 if OMP is not activated)
 
 
--- !COMMENT
src_file: m_xgScalapack.F90
src_line: 235
message: |
    xgScalapack in auto mode
...
 
 mkfilename : getden/=0, take file _DEN from output of DATASET   1.
 
 
 getdim_nloc: deduce lmnmax  =  18, lnmax  =   6,
                      lmnmaxso=  18, lnmaxso=   6.
 Exchange-correlation functional for the present dataset will be:
  GGA: Perdew-Burke-Ernzerhof functional - ixc=11
 Citation for XC functional:
  J.P.Perdew, K.Burke, M.Ernzerhof, PRL 77, 3865 (1996)
 
 Unit cell volume ucvol=  1.1597873E+03 bohr^3
 Angles (23,13,12)=  9.00000000E+01  9.00000000E+01  1.20000000E+02 degrees
 
 getcut: wavevector=  0.0000  0.0000  0.0000  ngfft=  20  20 120
         ecut(hartree)=     12.000   => boxcut(ratio)=   2.03609
 wfconv:     8 bands initialized randomly with npw=  1164, for ikpt=     1
 wfconv:     8 bands initialized randomly with npw=  2319, for ikpt=     2
 wfconv:     8 bands initialized randomly with npw=  2319, for ikpt=     3
 wfconv:     8 bands initialized randomly with npw=  2313, for ikpt=     4
 wfconv:     8 bands initialized randomly with npw=  2319, for ikpt=     5
 wfconv:     8 bands initialized randomly with npw=  2319, for ikpt=     6
 wfconv:     8 bands initialized randomly with npw=  2317, for ikpt=     7
 wfconv:     8 bands initialized randomly with npw=  2319, for ikpt=     8
 wfconv:     8 bands initialized randomly with npw=  2321, for ikpt=     9
 wfconv:     8 bands initialized randomly with npw=  2317, for ikpt=    10
 wfconv:     8 bands initialized randomly with npw=  2301, for ikpt=    11
 wfconv:     8 bands initialized randomly with npw=  2291, for ikpt=    12
 wfconv:     8 bands initialized randomly with npw=  2301, for ikpt=    13
 wfconv:     8 bands initialized randomly with npw=  2299, for ikpt=    14
 wfconv:     8 bands initialized randomly with npw=  2305, for ikpt=    15
 wfconv:     8 bands initialized randomly with npw=  2285, for ikpt=    16
 wfconv:     8 bands initialized randomly with npw=  2275, for ikpt=    17
 wfconv:     8 bands initialized randomly with npw=  2279, for ikpt=    18
 wfconv:     8 bands initialized randomly with npw=  2273, for ikpt=    19
 wfconv:     8 bands initialized randomly with npw=  2269, for ikpt=    20
 wfconv:     8 bands initialized randomly with npw=  2256, for ikpt=    21
 wfconv:     8 bands initialized randomly with npw=  2260, for ikpt=    22
 wfconv:     8 bands initialized randomly with npw=  2286, for ikpt=    23
 wfconv:     8 bands initialized randomly with npw=  2284, for ikpt=    24
 wfconv:     8 bands initialized randomly with npw=  2292, for ikpt=    25
 wfconv:     8 bands initialized randomly with npw=  2290, for ikpt=    26
 wfconv:     8 bands initialized randomly with npw=  2286, for ikpt=    27
 wfconv:     8 bands initialized randomly with npw=  2286, for ikpt=    28
 wfconv:     8 bands initialized randomly with npw=  2296, for ikpt=    29
 wfconv:     8 bands initialized randomly with npw=  2308, for ikpt=    30
 wfconv:     8 bands initialized randomly with npw=  1156, for ikpt=    31
 wfconv:     8 bands initialized randomly with npw=  2307, for ikpt=    32
 wfconv:     8 bands initialized randomly with npw=  2298, for ikpt=    33
 wfconv:     8 bands initialized randomly with npw=  2300, for ikpt=    34
 wfconv:     8 bands initialized randomly with npw=  2305, for ikpt=    35
 wfconv:     8 bands initialized randomly with npw=  2304, for ikpt=    36
 wfconv:     8 bands initialized randomly with npw=  2303, for ikpt=    37
 wfconv:     8 bands initialized randomly with npw=  2308, for ikpt=    38
 wfconv:     8 bands initialized randomly with npw=  2302, for ikpt=    39
 wfconv:     8 bands initialized randomly with npw=  2299, for ikpt=    40
 wfconv:     8 bands initialized randomly with npw=  2299, for ikpt=    41
 wfconv:     8 bands initialized randomly with npw=  2301, for ikpt=    42
 wfconv:     8 bands initialized randomly with npw=  2312, for ikpt=    43
 wfconv:     8 bands initialized randomly with npw=  2306, for ikpt=    44
 wfconv:     8 bands initialized randomly with npw=  2307, for ikpt=    45
 wfconv:     8 bands initialized randomly with npw=  2311, for ikpt=    46
 wfconv:     8 bands initialized randomly with npw=  2307, for ikpt=    47
 wfconv:     8 bands initialized randomly with npw=  2301, for ikpt=    48
 wfconv:     8 bands initialized randomly with npw=  2302, for ikpt=    49
 wfconv:     8 bands initialized randomly with npw=  2304, for ikpt=    50
 About to read data(r) from: mos2o_DS1_DEN
 
================================================================================
 
          - hdr_check: checking restart file header for consistency -
 
 
          current calculation                           restart file
          -------------------                           ------------
 
  calculation expects a density             |  input file contains a density
. ABINIT  code version 9.10.3               |  ABINIT  code version 9.10.3
. date 20250505 bantot      616 natom    3  |  date 20250505 bantot       28 natom    3
  nkpt      77 nsym  1 ngfft  20,  20, 120  |  nkpt       2 nsym  1 ngfft  20,  20, 120
  ntypat  2 ecut_eff  12.0000000            |  ntypat  2 ecut_eff  12.0000000
  usepaw  0                                 |  usepaw  0
  usewvl  0                                 |  usewvl  0
  rprimd:                                   |  rprimd:
     2.9763187  -5.1551351   0.0000000      |     2.9763187  -5.1551351   0.0000000
     2.9763187   5.1551351   0.0000000      |     2.9763187   5.1551351   0.0000000
     0.0000000   0.0000000  37.7945227      |     0.0000000   0.0000000  37.7945227
  symafm:                                   |  symafm:
    1                                       |    1
  symrel:                                   |  symrel:
    1  0  0  0  1  0  0  0  1               |    1  0  0  0  1  0  0  0  1
  typat:                                    |  typat:
    1  2  2                                 |    1  2  2
  so_psp  :                                 |  so_psp  :
    1  1                                    |    1  1
 
--- !COMMENT
src_file: m_hdr.F90
src_line: 4232
message: |
    input kptrlatt = 0 0 0 0 0 0 0 0 0  /= disk file kptrlatt = 3 0 0 0 1 0 0 0 1
...
 
 
--- !COMMENT
src_file: m_hdr.F90
src_line: 4235
message: |
    input kptopt = -3  /= disk file kptopt = 1
...
 
 
--- !WARNING
src_file: m_hdr.F90
src_line: 4256
message: |
    input ival=0 not equal disk file ival=13
...
 
  tnons:                                    |  tnons:
     0.0000000   0.0000000   0.0000000      |     0.0000000   0.0000000   0.0000000
   znucl:                                   |   znucl:
   42.00 16.00                              |       42.00 16.00
  pseudopotential atom type  1:             |  pseudopotential atom type  1:
  pspso   0 pspxc  11                       |  pspso   0 pspxc  11
  pspdat   170510 pspcod    8 zion  14.0    |  pspdat   170510 pspcod    8 zion  14.0
  pseudopotential atom type  2:             |  pseudopotential atom type  2:
  pspso   0 pspxc  11                       |  pspso   0 pspxc  11
  pspdat   220131 pspcod    8 zion   6.0    |  pspdat   220131 pspcod    8 zion   6.0
  xred:                                     |  xred:
     0.3333333   0.6666667   0.0000000      |     0.3333333   0.6666667   0.0000000
     0.6666667   0.3333333  -0.0919442      |     0.6666667   0.3333333  -0.0919442
     0.6666667   0.3333333   0.0919442      |     0.6666667   0.3333333   0.0919442
 hdr_check:  Density/Potential file is OK for restart of calculation
================================================================================
 read_rhor , wall:  0.00 [s] , cpu:  0.00 [s] <<< TIME
 
================================================================================
 
 getcut: wavevector=  0.0000  0.0000  0.0000  ngfft=  20  20 120
         ecut(hartree)=     12.000   => boxcut(ratio)=   2.03609
 Max number of non-self-consistent loops: 10
 k-point: [ 1 / 77 ], spin: 1
   Max resid = 2.44006E+00  (exclude nbdbuf bands). One NSCF iteration cpu-time:  0.02 [s] , wall-time:  0.02 [s]
   Max resid = 5.42975E-01  (exclude nbdbuf bands). One NSCF iteration cpu-time:  0.02 [s] , wall-time:  0.02 [s]
   Max resid = 1.06305E-02  (exclude nbdbuf bands). One NSCF iteration cpu-time:  0.02 [s] , wall-time:  0.02 [s]
   Printing residuals every mod(20) iterations...
 
--- !WARNING
src_file: m_vtowfk.F90
src_line: 1008
message: |
    Wavefunctions not converged for ikpt: 1, nnsclo: 10, max resid:   2.16115E-11
...
 
 
--- !WARNING
src_file: m_vtowfk.F90
src_line: 1008
message: |
    Wavefunctions not converged for ikpt: 2, nnsclo: 10, max resid:   7.55267E-12
...
 
 
--- !WARNING
src_file: m_vtowfk.F90
src_line: 1008
message: |
    Wavefunctions not converged for ikpt: 3, nnsclo: 10, max resid:   2.84271E-12
...
 
 
--- !WARNING
src_file: m_vtowfk.F90
src_line: 1008
message: |
    Wavefunctions not converged for ikpt: 4, nnsclo: 10, max resid:   4.64557E-12
...
 
 
--- !WARNING
src_file: m_vtowfk.F90
src_line: 1008
message: |
    Wavefunctions not converged for ikpt: 5, nnsclo: 10, max resid:   3.27789E-12
...
 
 
--- !WARNING
src_file: m_vtowfk.F90
src_line: 1008
message: |
    Wavefunctions not converged for ikpt: 6, nnsclo: 10, max resid:   2.43010E-12
...
 
 
--- !WARNING
src_file: m_vtowfk.F90
src_line: 1008
message: |
    Wavefunctions not converged for ikpt: 7, nnsclo: 10, max resid:   3.46630E-12
...
 
 
--- !WARNING
src_file: m_vtowfk.F90
src_line: 1008
message: |
    Wavefunctions not converged for ikpt: 8, nnsclo: 10, max resid:   1.51290E-12
...
 
 
--- !WARNING
src_file: m_vtowfk.F90
src_line: 1008
message: |
    Wavefunctions not converged for ikpt: 9, nnsclo: 10, max resid:   2.01911E-12
...
 
 
--- !WARNING
src_file: m_vtowfk.F90
src_line: 1008
message: |
    Wavefunctions not converged for ikpt: 10, nnsclo: 10, max resid:   2.13217E-12
...
 
 
--- !WARNING
src_file: m_vtowfk.F90
src_line: 1008
message: |
    Wavefunctions not converged for ikpt: 11, nnsclo: 10, max resid:   1.58358E-12
...
 
 
--- !WARNING
src_file: m_vtowfk.F90
src_line: 1008
message: |
    Wavefunctions not converged for ikpt: 31, nnsclo: 10, max resid:   1.34070E-12
...
 
 
--- !WARNING
src_file: m_vtowfk.F90
src_line: 1008
message: |
    Wavefunctions not converged for ikpt: 41, nnsclo: 10, max resid:   1.45199E-12
...
 
 
--- !WARNING
src_file: m_vtowfk.F90
src_line: 1008
message: |
    Wavefunctions not converged for ikpt: 42, nnsclo: 10, max resid:   1.34348E-12
...
 
 
--- !WARNING
src_file: m_vtowfk.F90
src_line: 1008
message: |
    Wavefunctions not converged for ikpt: 48, nnsclo: 10, max resid:   1.40972E-12
...
 
 
--- !WARNING
src_file: m_vtowfk.F90
src_line: 1008
message: |
    Wavefunctions not converged for ikpt: 50, nnsclo: 10, max resid:   1.08497E-12
...
 
 
--- !WARNING
src_file: m_vtowfk.F90
src_line: 1008
message: |
    Wavefunctions not converged for ikpt: 65, nnsclo: 10, max resid:   1.46239E-12
...
 
 
--- !WARNING
src_file: m_vtowfk.F90
src_line: 1008
message: |
    Wavefunctions not converged for ikpt: 66, nnsclo: 10, max resid:   1.16849E-12
...
 
 
--- !WARNING
src_file: m_vtowfk.F90
src_line: 1008
message: |
    Wavefunctions not converged for ikpt: 68, nnsclo: 10, max resid:   4.83551E-12
...
 
 
--- !WARNING
src_file: m_vtowfk.F90
src_line: 1008
message: |
    Wavefunctions not converged for ikpt: 69, nnsclo: 10, max resid:   5.68697E-12
...
 
 
--- !WARNING
src_file: m_vtowfk.F90
src_line: 1008
message: |
    Wavefunctions not converged for ikpt: 70, nnsclo: 10, max resid:   2.82702E-12
...
 
 
--- !WARNING
src_file: m_vtowfk.F90
src_line: 1008
message: |
    Wavefunctions not converged for ikpt: 71, nnsclo: 10, max resid:   2.32117E-12
...
 
 
--- !WARNING
src_file: m_vtowfk.F90
src_line: 1008
message: |
    Wavefunctions not converged for ikpt: 72, nnsclo: 10, max resid:   3.87403E-12
...
 
 
--- !WARNING
src_file: m_vtowfk.F90
src_line: 1008
message: |
    Wavefunctions not converged for ikpt: 73, nnsclo: 10, max resid:   2.09954E-12
...
 
 
--- !WARNING
src_file: m_vtowfk.F90
src_line: 1008
message: |
    Wavefunctions not converged for ikpt: 74, nnsclo: 10, max resid:   3.92284E-12
...
 
 
--- !WARNING
src_file: m_vtowfk.F90
src_line: 1008
message: |
    Wavefunctions not converged for ikpt: 75, nnsclo: 10, max resid:   8.70794E-12
...
 
 
--- !WARNING
src_file: m_vtowfk.F90
src_line: 1008
message: |
    Wavefunctions not converged for ikpt: 76, nnsclo: 10, max resid:   9.45216E-12
...
 
 
--- !WARNING
src_file: m_vtowfk.F90
src_line: 1008
message: |
    Wavefunctions not converged for ikpt: 77, nnsclo: 10, max resid:   4.93113E-11
...
 
 
 -------------------------------------------------------------------------------------------------
 Ekinetic   = :     0.000000E+00 Ha ,    0.000000E+00 eV
 Evext_l    = :     0.000000E+00 Ha ,    0.000000E+00 eV
 Evext_nl   = :     0.000000E+00 Ha ,    0.000000E+00 eV
 Epsp_core  = :     7.631172E-01 Ha ,    2.076547E+01 eV
 Ehartree   = :     0.000000E+00 Ha ,    0.000000E+00 eV
 Exc_ks     = :    -1.640372E+01 Ha ,   -4.463680E+02 eV
 Enn        = :     1.895732E+02 Ha ,    5.158549E+03 eV
 -------------------------------------------------------------------------------------------------
 Etot       = :     1.739326E+02 Ha ,    4.732947E+03 eV
 -------------------------------------------------------------------------------------------------

--- !NscfConvergenceWarning
message: |
    
     scprqt:  WARNING -
      nstep=   10 was not enough non-SCF iterations to converge;
...
 
 scprqt:  WARNING -
  nstep=   10 was not enough non-SCF iterations to converge;
  maximum residual each band. tolwfr=   1.000E-12
  iband, isppol, individual band residuals (max over all k-points):
     1     1  9.769E-13
     2     1  9.945E-13
     3     1  9.967E-13
     4     1  9.923E-13
     5     1  4.931E-11
     6     1  2.161E-11
     7     1  4.275E-06
     8     1  2.784E-04
  maximum residual=  4.931E-11 exceeds tolwfr=  1.000E-12
 
 
 fftdatar_write: About to write data to: mos2o_DS2_DEN with iomode: IO_MODE_FORTRAN
 IO operation , wall:  0.01 [s] , cpu:  0.00 [s] <<< TIME
- Creating HDf5 file with MPI-IO support: mos2o_DS2_GSR.nc
 Integrated electronic density in atomic spheres:
 ------------------------------------------------
 Atom  Sphere_radius  Integrated_density
    1        2.00000         10.44089670
    2        2.00000          3.84521671
    3        2.00000          3.84512670
================================================================================
 
 ----iterations are completed or convergence reached----
 
 
 === Gap info ===
Not enough states to calculate the band gap.
 Mean square residual over all n,k,spin=   88.492E-14; max=  49.311E-12
   0.0000  0.0000  0.0000    1  2.81601E-08 kpt; spin; max resid(k); each band:
  3.77E-13 2.08E-13 7.60E-13 5.45E-13 3.63E-12 2.16E-11 6.52E-11 2.82E-08
   0.0167  0.0167  0.0000    1  6.62553E-08 kpt; spin; max resid(k); each band:
  5.84E-13 3.50E-13 3.93E-13 1.52E-13 7.55E-12 9.83E-13 1.30E-10 6.63E-08
   0.0333  0.0333  0.0000    1  5.18512E-08 kpt; spin; max resid(k); each band:
  6.11E-13 6.90E-13 2.72E-13 4.98E-13 2.84E-12 8.72E-13 9.08E-11 5.19E-08
   0.0500  0.0500  0.0000    1  3.96413E-08 kpt; spin; max resid(k); each band:
  4.10E-13 7.54E-13 9.74E-13 6.38E-13 4.65E-12 5.89E-13 7.89E-11 3.96E-08
   0.0667  0.0667  0.0000    1  1.54667E-07 kpt; spin; max resid(k); each band:
  5.82E-13 7.59E-13 3.76E-13 8.18E-13 3.28E-12 8.78E-13 2.76E-10 1.55E-07
   0.0833  0.0833  0.0000    1  3.49580E-07 kpt; spin; max resid(k); each band:
  6.20E-13 5.02E-13 2.91E-13 7.01E-13 2.43E-12 8.65E-13 6.16E-10 3.50E-07
   0.1000  0.1000  0.0000    1  3.75275E-06 kpt; spin; max resid(k); each band:
  2.35E-13 6.41E-13 8.99E-13 1.74E-13 1.76E-12 3.47E-12 3.89E-10 3.75E-06
   0.1167  0.1167  0.0000    1  2.35061E-05 kpt; spin; max resid(k); each band:
  6.34E-13 4.76E-13 8.46E-13 6.02E-13 1.51E-12 5.68E-13 8.53E-09 2.35E-05
   0.1333  0.1333  0.0000    1  3.43323E-05 kpt; spin; max resid(k); each band:
  9.25E-13 1.44E-13 1.84E-13 8.41E-13 2.02E-12 1.26E-12 2.32E-08 3.43E-05
   0.1500  0.1500  0.0000    1  9.79784E-06 kpt; spin; max resid(k); each band:
  2.37E-13 7.18E-13 6.45E-13 1.81E-13 8.43E-13 2.13E-12 1.37E-07 9.80E-06
   0.1667  0.1667  0.0000    1  5.68526E-06 kpt; spin; max resid(k); each band:
  3.92E-13 5.79E-13 9.97E-13 1.60E-13 1.58E-12 1.25E-12 1.50E-06 5.69E-06
   0.1833  0.1833  0.0000    1  1.90433E-05 kpt; spin; max resid(k); each band:
  2.66E-13 1.70E-13 9.34E-13 5.62E-13 9.87E-13 8.16E-13 1.42E-06 1.90E-05
   0.2000  0.2000  0.0000    1  3.28260E-06 kpt; spin; max resid(k); each band:
  2.37E-13 5.31E-13 5.97E-13 7.87E-13 9.84E-13 8.07E-13 1.58E-06 3.28E-06
   0.2167  0.2167  0.0000    1  3.01263E-06 kpt; spin; max resid(k); each band:
  3.15E-13 2.83E-13 2.35E-13 3.88E-13 4.59E-13 7.92E-13 1.38E-07 3.01E-06
   0.2333  0.2333  0.0000    1  1.68644E-07 kpt; spin; max resid(k); each band:
  3.51E-13 9.16E-13 3.78E-13 2.45E-13 6.33E-13 8.52E-13 1.83E-08 1.69E-07
   0.2500  0.2500  0.0000    1  1.04043E-07 kpt; spin; max resid(k); each band:
  3.00E-13 8.96E-13 1.98E-13 4.35E-13 8.42E-13 4.21E-13 2.74E-08 1.04E-07
   0.2667  0.2667  0.0000    1  2.08203E-08 kpt; spin; max resid(k); each band:
  3.36E-13 8.50E-13 2.02E-13 3.20E-13 3.57E-13 6.15E-13 2.08E-08 7.56E-09
   0.2833  0.2833  0.0000    1  4.68832E-09 kpt; spin; max resid(k); each band:
  2.34E-13 8.77E-13 6.14E-13 1.89E-13 4.82E-13 7.18E-13 4.69E-09 1.98E-09
   0.3000  0.3000  0.0000    1  3.43025E-07 kpt; spin; max resid(k); each band:
  2.86E-13 1.86E-13 2.12E-13 4.66E-13 9.76E-13 7.62E-13 3.43E-07 1.33E-07
   0.3167  0.3167  0.0000    1  2.64033E-06 kpt; spin; max resid(k); each band:
  7.93E-13 7.88E-13 5.43E-13 8.74E-13 4.27E-13 8.33E-13 1.35E-07 2.64E-06
   0.3333  0.3333  0.0000    1  1.00426E-04 kpt; spin; max resid(k); each band:
  2.59E-13 7.23E-13 7.85E-13 2.79E-13 7.72E-13 7.70E-13 1.01E-06 1.00E-04
   0.3500  0.3000  0.0000    1  2.75158E-08 kpt; spin; max resid(k); each band:
  4.48E-13 7.03E-13 5.74E-13 3.29E-13 4.96E-13 4.91E-13 2.64E-08 2.75E-08
   0.3667  0.2667  0.0000    1  3.80251E-08 kpt; spin; max resid(k); each band:
  3.27E-13 1.35E-13 4.42E-13 2.23E-13 8.73E-13 7.62E-13 2.81E-09 3.80E-08
   0.3833  0.2333  0.0000    1  7.75333E-09 kpt; spin; max resid(k); each band:
  2.92E-13 1.97E-13 1.60E-13 1.84E-13 4.09E-13 6.06E-13 7.75E-09 2.92E-09
   0.4000  0.2000  0.0000    1  4.61785E-09 kpt; spin; max resid(k); each band:
  3.24E-13 4.62E-13 8.92E-13 9.02E-13 4.97E-13 4.98E-13 3.65E-09 4.62E-09
   0.4167  0.1667  0.0000    1  3.85690E-09 kpt; spin; max resid(k); each band:
  7.71E-13 4.16E-13 2.18E-13 7.59E-13 6.60E-13 5.91E-13 5.75E-10 3.86E-09
   0.4333  0.1333  0.0000    1  1.89787E-09 kpt; spin; max resid(k); each band:
  8.95E-13 9.94E-13 6.26E-13 3.71E-13 4.37E-13 6.23E-13 1.22E-10 1.90E-09
   0.4500  0.1000  0.0000    1  1.41048E-09 kpt; spin; max resid(k); each band:
  9.25E-13 1.41E-13 6.33E-13 2.92E-13 5.14E-13 9.10E-13 1.41E-09 1.33E-09
   0.4667  0.0667  0.0000    1  4.94139E-09 kpt; spin; max resid(k); each band:
  4.81E-13 8.68E-13 5.84E-13 5.11E-13 6.38E-13 4.43E-13 8.23E-10 4.94E-09
   0.4833  0.0333  0.0000    1  9.42852E-10 kpt; spin; max resid(k); each band:
  2.32E-13 7.35E-13 1.82E-13 4.34E-13 5.81E-13 5.94E-13 3.06E-10 9.43E-10
   0.5000  0.0000  0.0000    1  7.73838E-09 kpt; spin; max resid(k); each band:
  2.88E-13 1.73E-13 5.37E-13 9.42E-13 5.28E-13 1.34E-12 7.74E-09 1.10E-09
   0.5109  0.0217  0.0217    1  3.43926E-09 kpt; spin; max resid(k); each band:
  5.24E-13 2.06E-13 3.69E-13 2.28E-13 5.51E-13 9.57E-13 2.97E-09 3.44E-09
   0.5217  0.0435  0.0435    1  7.25192E-09 kpt; spin; max resid(k); each band:
  5.78E-13 8.47E-13 1.50E-13 2.57E-13 7.37E-13 5.68E-13 1.03E-09 7.25E-09
   0.5326  0.0652  0.0652    1  3.25730E-09 kpt; spin; max resid(k); each band:
  9.77E-13 2.17E-13 8.62E-13 2.86E-13 6.10E-13 4.63E-13 3.26E-09 8.23E-10
   0.5435  0.0870  0.0870    1  1.45467E-08 kpt; spin; max resid(k); each band:
  4.03E-13 2.44E-13 2.06E-13 4.35E-13 3.40E-13 8.28E-13 5.92E-09 1.45E-08
   0.5543  0.1087  0.1087    1  7.56868E-08 kpt; spin; max resid(k); each band:
  4.20E-13 6.98E-13 3.53E-13 8.11E-13 3.16E-13 5.93E-13 8.81E-09 7.57E-08
   0.5652  0.1304  0.1304    1  5.67044E-08 kpt; spin; max resid(k); each band:
  9.32E-13 7.48E-13 1.57E-13 4.84E-13 5.56E-13 4.37E-13 4.84E-09 5.67E-08
   0.5761  0.1522  0.1522    1  2.16499E-07 kpt; spin; max resid(k); each band:
  1.97E-13 6.33E-13 5.92E-13 6.67E-13 8.07E-13 9.13E-13 2.53E-09 2.16E-07
   0.5870  0.1739  0.1739    1  2.78357E-04 kpt; spin; max resid(k); each band:
  7.78E-13 7.69E-13 8.87E-13 5.75E-13 8.75E-13 4.31E-13 2.64E-06 2.78E-04
   0.5978  0.1957  0.1957    1  6.18841E-06 kpt; spin; max resid(k); each band:
  2.85E-13 8.33E-13 1.46E-13 2.09E-13 7.89E-13 3.72E-13 2.78E-07 6.19E-06
   0.6087  0.2174  0.2174    1  1.40091E-04 kpt; spin; max resid(k); each band:
  6.96E-13 7.06E-13 3.48E-13 4.43E-13 1.45E-12 8.78E-13 2.62E-07 1.40E-04
   0.6196  0.2391  0.2391    1  8.00146E-06 kpt; spin; max resid(k); each band:
  3.00E-13 7.34E-13 1.91E-13 1.92E-13 1.34E-12 9.49E-13 2.55E-07 8.00E-06
   0.6304  0.2609  0.2609    1  2.01063E-05 kpt; spin; max resid(k); each band:
  2.66E-13 7.56E-13 6.84E-13 9.38E-13 9.85E-13 8.79E-13 7.58E-07 2.01E-05
   0.6413  0.2826  0.2826    1  1.32030E-05 kpt; spin; max resid(k); each band:
  5.49E-13 2.85E-13 5.19E-13 6.20E-13 7.08E-13 5.86E-13 3.50E-07 1.32E-05
   0.6522  0.3043  0.3043    1  3.66087E-06 kpt; spin; max resid(k); each band:
  2.09E-13 9.71E-13 9.85E-13 1.77E-13 8.96E-13 4.33E-13 3.16E-07 3.66E-06
   0.6630  0.3261  0.3261    1  2.54396E-05 kpt; spin; max resid(k); each band:
  8.64E-13 2.12E-13 2.40E-13 2.05E-13 4.70E-13 5.49E-13 5.75E-07 2.54E-05
   0.6739  0.3478  0.3478    1  1.67790E-06 kpt; spin; max resid(k); each band:
  3.26E-13 7.61E-13 8.71E-13 2.66E-13 7.58E-13 4.27E-13 1.38E-07 1.68E-06
   0.6848  0.3696  0.3696    1  6.06542E-06 kpt; spin; max resid(k); each band:
  9.37E-13 2.30E-13 5.71E-13 1.86E-13 1.41E-12 4.33E-13 1.43E-07 6.07E-06
   0.6957  0.3913  0.3913    1  2.88572E-05 kpt; spin; max resid(k); each band:
  5.54E-13 1.48E-13 2.05E-13 5.12E-13 8.24E-13 5.83E-13 9.38E-08 2.89E-05
   0.7065  0.4130  0.4130    1  6.35988E-07 kpt; spin; max resid(k); each band:
  7.48E-13 3.13E-13 4.05E-13 3.72E-13 1.08E-12 4.12E-13 9.07E-09 6.36E-07
 outwf : prtvol=0 or 1, do not print more k-points.
 
 
   outwf: writing wavefunctions to: mos2o_DS2_WFK with iomode: IO_MODE_FORTRAN_MASTER
 WFK output , wall:  0.04 [s] , cpu:  0.03 [s] <<< TIME
 prteigrs : about to open file mos2o_DS2_EIG
 Eigenvalues (   eV  ) for nkpt=  77  k points:
 kpt#   1, nband=  8, wtk=  1.00000, kpt=  0.0000  0.0000  0.0000 (reduced coord)
 -60.30098  -36.86023  -36.78441  -36.21576  -15.18757  -14.63652   -6.44045   -4.09261
 kpt#   2, nband=  8, wtk=  1.00000, kpt=  0.0167  0.0167  0.0000 (reduced coord)
 -60.27969  -36.86233  -36.78388  -36.21684  -15.17391  -14.62694   -6.42391   -4.10151
 kpt#   3, nband=  8, wtk=  1.00000, kpt=  0.0333  0.0333  0.0000 (reduced coord)
 -60.27960  -36.86942  -36.78221  -36.22058  -15.13691  -14.60317   -6.37773   -4.12736
 kpt#   4, nband=  8, wtk=  1.00000, kpt=  0.0500  0.0500  0.0000 (reduced coord)
 -60.26163  -36.88090  -36.77953  -36.22663  -15.07708  -14.56160   -6.30119   -4.16980
 kpt#   5, nband=  8, wtk=  1.00000, kpt=  0.0667  0.0667  0.0000 (reduced coord)
 -60.27711  -36.89668  -36.77622  -36.23501  -14.99819  -14.50686   -6.20197   -4.22920
 kpt#   6, nband=  8, wtk=  1.00000, kpt=  0.0833  0.0833  0.0000 (reduced coord)
 -60.27210  -36.91571  -36.77233  -36.24511  -14.89809  -14.43565   -6.08457   -4.30326
 kpt#   7, nband=  8, wtk=  1.00000, kpt=  0.1000  0.1000  0.0000 (reduced coord)
 -60.26232  -36.93791  -36.76734  -36.25702  -14.77700  -14.35197   -5.94408   -4.38674
 kpt#   8, nband=  8, wtk=  1.00000, kpt=  0.1167  0.1167  0.0000 (reduced coord)
 -60.26295  -36.96213  -36.76202  -36.27041  -14.64122  -14.25647   -5.79642   -4.47685
 kpt#   9, nband=  8, wtk=  1.00000, kpt=  0.1333  0.1333  0.0000 (reduced coord)
 -60.26239  -36.98735  -36.75651  -36.28487  -14.48944  -14.14881   -5.65258   -4.56779
 kpt#  10, nband=  8, wtk=  1.00000, kpt=  0.1500  0.1500  0.0000 (reduced coord)
 -60.24420  -37.01296  -36.75063  -36.30006  -14.32362  -14.03368   -5.52676   -4.67028
 kpt#  11, nband=  8, wtk=  1.00000, kpt=  0.1667  0.1667  0.0000 (reduced coord)
 -60.19039  -37.03745  -36.74462  -36.31579  -14.15109  -13.91019   -5.46328   -4.83146
 kpt#  12, nband=  8, wtk=  1.00000, kpt=  0.1833  0.1833  0.0000 (reduced coord)
 -60.15316  -37.06029  -36.73888  -36.33224  -13.97416  -13.78451   -5.52780   -4.96467
 kpt#  13, nband=  8, wtk=  1.00000, kpt=  0.2000  0.2000  0.0000 (reduced coord)
 -60.17317  -37.08112  -36.73376  -36.34924  -13.79850  -13.66226   -5.68564   -5.20004
 kpt#  14, nband=  8, wtk=  1.00000, kpt=  0.2167  0.2167  0.0000 (reduced coord)
 -60.15979  -37.09826  -36.72897  -36.36610  -13.62697  -13.54277   -5.85100   -5.43877
 kpt#  15, nband=  8, wtk=  1.00000, kpt=  0.2333  0.2333  0.0000 (reduced coord)
 -60.17158  -37.11185  -36.72481  -36.38288  -13.47116  -13.43026   -5.98960   -5.66080
 kpt#  16, nband=  8, wtk=  1.00000, kpt=  0.2500  0.2500  0.0000 (reduced coord)
 -60.11126  -37.12039  -36.72109  -36.39895  -13.33686  -13.31528   -6.07819   -5.84727
 kpt#  17, nband=  8, wtk=  1.00000, kpt=  0.2667  0.2667  0.0000 (reduced coord)
 -60.08053  -37.12520  -36.71792  -36.41448  -13.24844  -13.19805   -6.11529   -5.99300
 kpt#  18, nband=  8, wtk=  1.00000, kpt=  0.2833  0.2833  0.0000 (reduced coord)
 -60.09068  -37.12604  -36.71603  -36.42915  -13.18241  -13.10602   -6.10419   -6.08865
 kpt#  19, nband=  8, wtk=  1.00000, kpt=  0.3000  0.3000  0.0000 (reduced coord)
 -60.07312  -37.12324  -36.71454  -36.44254  -13.13575  -13.03952   -6.16618   -6.01316
 kpt#  20, nband=  8, wtk=  1.00000, kpt=  0.3167  0.3167  0.0000 (reduced coord)
 -60.06086  -37.11719  -36.71400  -36.45427  -13.10742  -13.00268   -6.19865   -5.89201
 kpt#  21, nband=  8, wtk=  1.00000, kpt=  0.3333  0.3333  0.0000 (reduced coord)
 -60.02454  -37.10866  -36.71371  -36.46394  -13.09789  -12.98859   -6.20377   -5.79836
 kpt#  22, nband=  8, wtk=  1.00000, kpt=  0.3500  0.3000  0.0000 (reduced coord)
 -60.03598  -37.12652  -36.71377  -36.44496  -13.10554  -12.99978   -6.20707   -5.91048
 kpt#  23, nband=  8, wtk=  1.00000, kpt=  0.3667  0.2667  0.0000 (reduced coord)
 -60.10970  -37.14378  -36.71456  -36.42433  -13.13040  -13.02752   -6.22023   -6.08396
 kpt#  24, nband=  8, wtk=  1.00000, kpt=  0.3833  0.2333  0.0000 (reduced coord)
 -60.10346  -37.15927  -36.71516  -36.40219  -13.15799  -13.06321   -6.26186   -6.24047
 kpt#  25, nband=  8, wtk=  1.00000, kpt=  0.4000  0.2000  0.0000 (reduced coord)
 -60.12672  -37.17339  -36.71615  -36.38038  -13.19259  -13.10551   -6.42146   -6.28064
 kpt#  26, nband=  8, wtk=  1.00000, kpt=  0.4167  0.1667  0.0000 (reduced coord)
 -60.12091  -37.18562  -36.71708  -36.35955  -13.22625  -13.14898   -6.56302   -6.32374
 kpt#  27, nband=  8, wtk=  1.00000, kpt=  0.4333  0.1333  0.0000 (reduced coord)
 -60.10901  -37.19610  -36.71787  -36.34096  -13.25805  -13.18893   -6.68385   -6.36751
 kpt#  28, nband=  8, wtk=  1.00000, kpt=  0.4500  0.1000  0.0000 (reduced coord)
 -60.11012  -37.20424  -36.71876  -36.32552  -13.28787  -13.22132   -6.77736   -6.40670
 kpt#  29, nband=  8, wtk=  1.00000, kpt=  0.4667  0.0667  0.0000 (reduced coord)
 -60.13731  -37.21052  -36.71947  -36.31415  -13.30957  -13.25125   -6.84857   -6.43742
 kpt#  30, nband=  8, wtk=  1.00000, kpt=  0.4833  0.0333  0.0000 (reduced coord)
 -60.17214  -37.21424  -36.72019  -36.30708  -13.32764  -13.26651   -6.89029   -6.45871
 kpt#  31, nband=  8, wtk=  1.00000, kpt=  0.5000  0.0000  0.0000 (reduced coord)
 -60.18349  -37.21537  -36.72040  -36.30479  -13.33272  -13.27294   -6.90290   -6.46544
 kpt#  32, nband=  8, wtk=  1.00000, kpt=  0.5109  0.0217  0.0217 (reduced coord)
 -60.16923  -37.21332  -36.72052  -36.30529  -13.33849  -13.28262   -6.87693   -6.44503
 kpt#  33, nband=  8, wtk=  1.00000, kpt=  0.5217  0.0435  0.0435 (reduced coord)
 -60.14513  -37.20682  -36.72119  -36.30697  -13.35571  -13.31139   -6.79550   -6.38526
 kpt#  34, nband=  8, wtk=  1.00000, kpt=  0.5326  0.0652  0.0652 (reduced coord)
 -60.15294  -37.19669  -36.72234  -36.30999  -13.38704  -13.35801   -6.66926   -6.28967
 kpt#  35, nband=  8, wtk=  1.00000, kpt=  0.5435  0.0870  0.0870 (reduced coord)
 -60.17000  -37.18311  -36.72389  -36.31415  -13.43377  -13.41421   -6.50653   -6.15962
 kpt#  36, nband=  8, wtk=  1.00000, kpt=  0.5543  0.1087  0.1087 (reduced coord)
 -60.17038  -37.16657  -36.72551  -36.31923  -13.49893  -13.46549   -6.31848   -5.99891
 kpt#  37, nband=  8, wtk=  1.00000, kpt=  0.5652  0.1304  0.1304 (reduced coord)
 -60.16993  -37.14766  -36.72741  -36.32520  -13.57420  -13.51486   -6.11937   -5.81378
 kpt#  38, nband=  8, wtk=  1.00000, kpt=  0.5761  0.1522  0.1522 (reduced coord)
 -60.18698  -37.12740  -36.72952  -36.33207  -13.65133  -13.56538   -5.93321   -5.61274
 kpt#  39, nband=  8, wtk=  1.00000, kpt=  0.5870  0.1739  0.1739 (reduced coord)
 -60.17273  -37.10631  -36.73146  -36.33939  -13.72181  -13.61183   -5.78466   -5.38642
 kpt#  40, nband=  8, wtk=  1.00000, kpt=  0.5978  0.1957  0.1957 (reduced coord)
 -60.16697  -37.08514  -36.73343  -36.34749  -13.78610  -13.65388   -5.69511   -5.22779
 kpt#  41, nband=  8, wtk=  1.00000, kpt=  0.6087  0.2174  0.2174 (reduced coord)
 -60.17142  -37.06470  -36.73516  -36.35627  -13.83971  -13.69189   -5.66843   -5.09423
 kpt#  42, nband=  8, wtk=  1.00000, kpt=  0.6196  0.2391  0.2391 (reduced coord)
 -60.17968  -37.04585  -36.73651  -36.36572  -13.88130  -13.72203   -5.69122   -5.16009
 kpt#  43, nband=  8, wtk=  1.00000, kpt=  0.6304  0.2609  0.2609 (reduced coord)
 -60.21344  -37.02904  -36.73770  -36.37609  -13.91220  -13.74300   -5.74470   -5.23407
 kpt#  44, nband=  8, wtk=  1.00000, kpt=  0.6413  0.2826  0.2826 (reduced coord)
 -60.19740  -37.01414  -36.73811  -36.38710  -13.92349  -13.75228   -5.80798   -5.31520
 kpt#  45, nband=  8, wtk=  1.00000, kpt=  0.6522  0.3043  0.3043 (reduced coord)
 -60.20058  -37.00190  -36.73816  -36.39914  -13.92133  -13.75098   -5.87132   -5.39207
 kpt#  46, nband=  8, wtk=  1.00000, kpt=  0.6630  0.3261  0.3261 (reduced coord)
 -60.21162  -36.99236  -36.73784  -36.41213  -13.90294  -13.73908   -5.92634   -5.45335
 kpt#  47, nband=  8, wtk=  1.00000, kpt=  0.6739  0.3478  0.3478 (reduced coord)
 -60.19891  -36.98551  -36.73684  -36.42578  -13.86859  -13.71438   -5.96867   -5.50849
 kpt#  48, nband=  8, wtk=  1.00000, kpt=  0.6848  0.3696  0.3696 (reduced coord)
 -60.17956  -36.98140  -36.73531  -36.44001  -13.81885  -13.67852   -5.99736   -5.54864
 kpt#  49, nband=  8, wtk=  1.00000, kpt=  0.6957  0.3913  0.3913 (reduced coord)
 -60.17852  -36.98019  -36.73349  -36.45438  -13.75766  -13.63358   -6.01487   -5.57925
 kpt#  50, nband=  8, wtk=  1.00000, kpt=  0.7065  0.4130  0.4130 (reduced coord)
 -60.17997  -36.98194  -36.73133  -36.46813  -13.68527  -13.58003   -6.02271   -5.61182
 kpt#  51, nband=  8, wtk=  1.00000, kpt=  0.7174  0.4348  0.4348 (reduced coord)
 -60.18120  -36.98633  -36.72901  -36.48063  -13.60205  -13.52102   -6.02574   -5.64626
 kpt#  52, nband=  8, wtk=  1.00000, kpt=  0.7283  0.4565  0.4565 (reduced coord)
 -60.16309  -36.99353  -36.72651  -36.49090  -13.51321  -13.45521   -6.02856   -5.69561
 kpt#  53, nband=  8, wtk=  1.00000, kpt=  0.7391  0.4783  0.4783 (reduced coord)
 -60.14264  -37.00299  -36.72397  -36.49855  -13.42290  -13.38730   -6.03954   -5.76774
 kpt#  54, nband=  8, wtk=  1.00000, kpt=  0.7500  0.5000  0.5000 (reduced coord)
 -60.10980  -37.01417  -36.72175  -36.50293  -13.33658  -13.31686   -6.06524   -5.86440
 kpt#  55, nband=  8, wtk=  1.00000, kpt=  0.7609  0.5217  0.5217 (reduced coord)
 -60.12233  -37.02706  -36.71972  -36.50429  -13.27459  -13.24388   -6.12078   -5.97354
 kpt#  56, nband=  8, wtk=  1.00000, kpt=  0.7717  0.5435  0.5435 (reduced coord)
 -60.12433  -37.04028  -36.71816  -36.50222  -13.22849  -13.17734   -6.19923   -6.07983
 kpt#  57, nband=  8, wtk=  1.00000, kpt=  0.7826  0.5652  0.5652 (reduced coord)
 -60.10095  -37.05251  -36.71691  -36.49703  -13.19653  -13.12977   -6.28878   -6.16346
 kpt#  58, nband=  8, wtk=  1.00000, kpt=  0.7935  0.5870  0.5870 (reduced coord)
 -60.10004  -37.06346  -36.71641  -36.48892  -13.18456  -13.10937   -6.37155   -6.21421
 kpt#  59, nband=  8, wtk=  1.00000, kpt=  0.8043  0.6087  0.6087 (reduced coord)
 -60.09997  -37.07187  -36.71668  -36.47830  -13.19387  -13.12011   -6.42729   -6.22255
 kpt#  60, nband=  8, wtk=  1.00000, kpt=  0.8152  0.6304  0.6304 (reduced coord)
 -60.10943  -37.07716  -36.71784  -36.46554  -13.22554  -13.16579   -6.44043   -6.18337
 kpt#  61, nband=  8, wtk=  1.00000, kpt=  0.8261  0.6522  0.6522 (reduced coord)
 -60.12334  -37.07878  -36.71980  -36.45097  -13.28185  -13.24330   -6.40519   -6.09404
 kpt#  62, nband=  8, wtk=  1.00000, kpt=  0.8370  0.6739  0.6739 (reduced coord)
 -60.13984  -37.07665  -36.72231  -36.43487  -13.36536  -13.34598   -6.31693   -5.95570
 kpt#  63, nband=  8, wtk=  1.00000, kpt=  0.8478  0.6957  0.6957 (reduced coord)
 -60.17431  -37.07033  -36.72578  -36.41769  -13.49334  -13.44912   -6.18260   -5.77466
 kpt#  64, nband=  8, wtk=  1.00000, kpt=  0.8587  0.7174  0.7174 (reduced coord)
 -60.18544  -37.05989  -36.72982  -36.39941  -13.64625  -13.55749   -6.00739   -5.55738
 kpt#  65, nband=  8, wtk=  1.00000, kpt=  0.8696  0.7391  0.7391 (reduced coord)
 -60.17914  -37.04542  -36.73450  -36.38040  -13.81206  -13.67284   -5.81049   -5.31720
 kpt#  66, nband=  8, wtk=  1.00000, kpt=  0.8804  0.7609  0.7609 (reduced coord)
 -60.20783  -37.02836  -36.73978  -36.36110  -13.98606  -13.79499   -5.63196   -5.05975
 kpt#  67, nband=  8, wtk=  1.00000, kpt=  0.8913  0.7826  0.7826 (reduced coord)
 -60.22381  -37.00893  -36.74534  -36.34167  -14.16054  -13.91786   -5.54247   -4.85895
 kpt#  68, nband=  8, wtk=  1.00000, kpt=  0.9022  0.8043  0.8043 (reduced coord)
 -60.24510  -36.98802  -36.75114  -36.32246  -14.33182  -14.03824   -5.57909   -4.66321
 kpt#  69, nband=  8, wtk=  1.00000, kpt=  0.9130  0.8261  0.8261 (reduced coord)
 -60.25167  -36.96644  -36.75678  -36.30371  -14.49307  -14.15288   -5.68599   -4.51677
 kpt#  70, nband=  8, wtk=  1.00000, kpt=  0.9239  0.8478  0.8478 (reduced coord)
 -60.26062  -36.94515  -36.76240  -36.28570  -14.64396  -14.25913   -5.82027   -4.44866
 kpt#  71, nband=  8, wtk=  1.00000, kpt=  0.9348  0.8696  0.8696 (reduced coord)
 -60.27737  -36.92490  -36.76774  -36.26901  -14.78126  -14.35442   -5.96056   -4.36402
 kpt#  72, nband=  8, wtk=  1.00000, kpt=  0.9457  0.8913  0.8913 (reduced coord)
 -60.26479  -36.90635  -36.77233  -36.25375  -14.89908  -14.43707   -6.09093   -4.28641
 kpt#  73, nband=  8, wtk=  1.00000, kpt=  0.9565  0.9130  0.9130 (reduced coord)
 -60.26831  -36.89031  -36.77638  -36.24066  -14.99920  -14.50689   -6.20826   -4.21788
 kpt#  74, nband=  8, wtk=  1.00000, kpt=  0.9674  0.9348  0.9348 (reduced coord)
 -60.26714  -36.87733  -36.77970  -36.22993  -15.07806  -14.56265   -6.30539   -4.16336
 kpt#  75, nband=  8, wtk=  1.00000, kpt=  0.9783  0.9565  0.9565 (reduced coord)
 -60.27967  -36.86781  -36.78223  -36.22208  -15.13725  -14.60354   -6.37877   -4.12420
 kpt#  76, nband=  8, wtk=  1.00000, kpt=  0.9891  0.9783  0.9783 (reduced coord)
 -60.28259  -36.86194  -36.78383  -36.21728  -15.17355  -14.62774   -6.42386   -4.10064
 kpt#  77, nband=  8, wtk=  1.00000, kpt=  1.0000  1.0000  1.0000 (reduced coord)
 -60.30098  -36.86023  -36.78441  -36.21576  -15.18757  -14.63652   -6.44045   -4.09260
 Total charge density [el/Bohr^3]
)     Maximum=    8.5192E-01  at reduced coord.    0.3000    0.5000    0.0000
)Next maximum=    8.5191E-01  at reduced coord.    0.3000    0.8000    0.0000
)     Minimum=    9.3439E-08  at reduced coord.    0.7000    0.3500    0.4833
)Next minimum=    9.3626E-08  at reduced coord.    0.7000    0.3500    0.5167
   Integrated=    2.6000E+01
 dataset: 2 , wall: 18.99 [s] , cpu: 18.36 [s] <<< TIME
 
== END DATASET(S) ==============================================================
================================================================================
  
 -outvars: echo values of variables after computation  --------
 
 These variables are accessible in NetCDF format (mos2o_OUT.nc)

            acell      5.9526373186E+00  5.9526373186E+00  3.7794522658E+01 Bohr
              amu      9.59400000E+01  3.20660000E+01
      chksymbreak           0
             ecut      1.20000000E+01 Hartree
           enunit1          0
           enunit2          1
           etotal1    -9.1752283410E+01
            fcart1    -1.4795593155E-02  8.5330553409E-03 -1.6145528859E-04
                       7.3989240421E-03 -4.2618628316E-03  7.7765506746E-02
                       7.3966691126E-03 -4.2711925093E-03 -7.7604051457E-02
-          fftalg         512
           getden1          0
           getden2         -1
             iscf1          7
             iscf2         -2
           istwfk1       2    0
           istwfk2       2    0    0    0    0    0    0    0    0    0
                         0    0    0    0    0    0    0    0    0    0
                         0    0    0    0    0    0    0    0    0    0
                         3    0    0    0    0    0    0    0    0    0
                         0    0    0    0    0    0    0    0    0    0
                       outvar_i_n : Printing only first  50 k-points.
              ixc          11
           jdtset        1    2
              kpt1     0.00000000E+00  0.00000000E+00  0.00000000E+00
                       3.33333333E-01  0.00000000E+00  0.00000000E+00
              kpt2     0.00000000E+00  0.00000000E+00  0.00000000E+00
                       1.66666667E-02  1.66666667E-02  0.00000000E+00
                       3.33333333E-02  3.33333333E-02  0.00000000E+00
                       5.00000000E-02  5.00000000E-02  0.00000000E+00
                       6.66666667E-02  6.66666667E-02  0.00000000E+00
                       8.33333333E-02  8.33333333E-02  0.00000000E+00
                       1.00000000E-01  1.00000000E-01  0.00000000E+00
                       1.16666667E-01  1.16666667E-01  0.00000000E+00
                       1.33333333E-01  1.33333333E-01  0.00000000E+00
                       1.50000000E-01  1.50000000E-01  0.00000000E+00
                       1.66666667E-01  1.66666667E-01  0.00000000E+00
                       1.83333333E-01  1.83333333E-01  0.00000000E+00
                       2.00000000E-01  2.00000000E-01  0.00000000E+00
                       2.16666667E-01  2.16666667E-01  0.00000000E+00
                       2.33333333E-01  2.33333333E-01  0.00000000E+00
                       2.50000000E-01  2.50000000E-01  0.00000000E+00
                       2.66666667E-01  2.66666667E-01  0.00000000E+00
                       2.83333333E-01  2.83333333E-01  0.00000000E+00
                       3.00000000E-01  3.00000000E-01  0.00000000E+00
                       3.16666667E-01  3.16666667E-01  0.00000000E+00
                       3.33333333E-01  3.33333333E-01  0.00000000E+00
                       3.50000000E-01  3.00000000E-01  0.00000000E+00
                       3.66666667E-01  2.66666667E-01  0.00000000E+00
                       3.83333333E-01  2.33333333E-01  0.00000000E+00
                       4.00000000E-01  2.00000000E-01  0.00000000E+00
                       4.16666667E-01  1.66666667E-01  0.00000000E+00
                       4.33333333E-01  1.33333333E-01  0.00000000E+00
                       4.50000000E-01  1.00000000E-01  0.00000000E+00
                       4.66666667E-01  6.66666667E-02  0.00000000E+00
                       4.83333333E-01  3.33333333E-02  0.00000000E+00
                       5.00000000E-01  0.00000000E+00  0.00000000E+00
                       5.10869565E-01  2.17391304E-02  2.17391304E-02
                       5.21739130E-01  4.34782609E-02  4.34782609E-02
                       5.32608696E-01  6.52173913E-02  6.52173913E-02
                       5.43478261E-01  8.69565217E-02  8.69565217E-02
                       5.54347826E-01  1.08695652E-01  1.08695652E-01
                       5.65217391E-01  1.30434783E-01  1.30434783E-01
                       5.76086957E-01  1.52173913E-01  1.52173913E-01
                       5.86956522E-01  1.73913043E-01  1.73913043E-01
                       5.97826087E-01  1.95652174E-01  1.95652174E-01
                       6.08695652E-01  2.17391304E-01  2.17391304E-01
                       6.19565217E-01  2.39130435E-01  2.39130435E-01
                       6.30434783E-01  2.60869565E-01  2.60869565E-01
                       6.41304348E-01  2.82608696E-01  2.82608696E-01
                       6.52173913E-01  3.04347826E-01  3.04347826E-01
                       6.63043478E-01  3.26086957E-01  3.26086957E-01
                       6.73913043E-01  3.47826087E-01  3.47826087E-01
                       6.84782609E-01  3.69565217E-01  3.69565217E-01
                       6.95652174E-01  3.91304348E-01  3.91304348E-01
                       7.06521739E-01  4.13043478E-01  4.13043478E-01
                       outvar_i_n : Printing only first  50 k-points.
           kptopt1          1
           kptopt2         -3
         kptrlatt        3    0    0      0    1    0      0    0    1
          kptrlen1     5.95263732E+00
          kptrlen2     3.00000000E+01
P           mkmem1          2
P           mkmem2         77
            natom           3
            nband1         14
            nband2          8
           nbdbuf1          0
           nbdbuf2          2
           ndtset           2
           ndivsm1          0
           ndivsm2         10
            ngfft          20      20     120
             nkpt1          2
             nkpt2         77
            nstep          10
             nsym           1
           ntypat           2
              occ      2.000000  2.000000  2.000000  2.000000  2.000000  2.000000
                       2.000000  2.000000  2.000000  2.000000  2.000000  2.000000
                       2.000000  0.000000
            rprim      5.0000000000E-01 -8.6602540378E-01  0.0000000000E+00
                       5.0000000000E-01  8.6602540378E-01  0.0000000000E+00
                       0.0000000000E+00  0.0000000000E+00  1.0000000000E+00
           shiftk1     0.00000000E+00  0.00000000E+00  0.00000000E+00
           shiftk2     5.00000000E-01  5.00000000E-01  5.00000000E-01
          spgroup           1
           strten1     6.7451113053E-04  5.7665175887E-04  1.1796823235E-03
                       5.8327925101E-08  3.4044112007E-08 -8.4780142943E-05
           toldfe1     1.00000000E-06 Hartree
           toldfe2     0.00000000E+00 Hartree
           tolwfr1     0.00000000E+00
           tolwfr2     1.00000000E-12
            typat      1  2  2
              wtk1       0.33333    0.66667
              wtk2       1.00000    1.00000    1.00000    1.00000    1.00000    1.00000
                         1.00000    1.00000    1.00000    1.00000    1.00000    1.00000
                         1.00000    1.00000    1.00000    1.00000    1.00000    1.00000
                         1.00000    1.00000    1.00000    1.00000    1.00000    1.00000
                         1.00000    1.00000    1.00000    1.00000    1.00000    1.00000
                         1.00000    1.00000    1.00000    1.00000    1.00000    1.00000
                         1.00000    1.00000    1.00000    1.00000    1.00000    1.00000
                         1.00000    1.00000    1.00000    1.00000    1.00000    1.00000
                         1.00000    1.00000
                       outvars : Printing only first  50 k-points.
           xangst      1.5750000000E+00  9.0932667397E-01  0.0000000000E+00
                       1.5750000000E+00 -9.0932667397E-01 -1.8388847000E+00
                       1.5750000000E+00 -9.0932667397E-01  1.8388847000E+00
            xcart      2.9763186593E+00  1.7183783791E+00  0.0000000000E+00
                       2.9763186593E+00 -1.7183783791E+00 -3.4749884730E+00
                       2.9763186593E+00 -1.7183783791E+00  3.4749884730E+00
             xred      3.3333333333E-01  6.6666666667E-01  0.0000000000E+00
                       6.6666666667E-01  3.3333333333E-01 -9.1944235000E-02
                       6.6666666667E-01  3.3333333333E-01  9.1944235000E-02
            znucl       42.00000   16.00000
 
================================================================================
  
 Proc.   0 individual time (sec): cpu=         24.4  wall=         29.7
 
 Calculation completed.
.Delivered  33 WARNINGs and  10 COMMENTs to log file.

--- !FinalSummary
program: abinit
version: 9.10.3
start_datetime: Mon May 05 17:09:53 2025
end_datetime: Mon May 05 17:10:22 2025
overall_cpu_time:          24.4
overall_wall_time:          29.7
exit_requested_by_user: no 
timelimit: 0
pseudos: 
    Mo  : 228091cb5782e08cb8d68936b3c7e57b
    S   : ee4b2e2802f5df21cf2ecc26b1029f69
usepaw: 0
mpi_procs: 1
omp_threads: 1
num_warnings: 33
num_comments: 10
...
