
.Version 9.10.3 of ABINIT 
.(MPI version, prepared for a x86_64_linux_intel2021.6 computer) 

.Copyright (C) 1998-2022 ABINIT group . 
 ABINIT comes with ABSOLUTELY NO WARRANTY.
 It is free software, and you are welcome to redistribute it
 under certain conditions (GNU General Public License,
 see ~abinit/COPYING or http://www.gnu.org/copyleft/gpl.txt).

 ABINIT is a project of the Universite Catholique de Louvain,
 Corning Inc. and other collaborators, see ~abinit/doc/developers/contributors.txt .
 Please read https://docs.abinit.org/theory/acknowledgments for suggested
 acknowledgments of the ABINIT effort.
 For more information, see https://www.abinit.org .

.Starting date : Wed  7 May 2025.
- ( at 06h29 )
  
- input  file    -> mos2_ecut.abi
- output file    -> mos2_ecut.abo
- root for input  files -> mos2_ecuti
- root for output files -> mos2_ecuto
 
 
 DATASET    1 : space group P1 (#  1); Bravais aP (primitive triclinic)
================================================================================
 Values of the parameters that define the memory need for DATASET  1.
     intxc =       0    ionmov =       0      iscf =       7    lmnmax =       6
     lnmax =       6     mgfft =      80  mpssoang =       3    mqgrid =    3805
     natom =       3  nloc_mem =       1    nspden =       1   nspinor =       1
    nsppol =       1      nsym =       1    n1xccc =    2501    ntypat =       2
    occopt =       1   xclevel =       2
-    mband =          14        mffmem =           1         mkmem =           5
       mpw =         628          nfft =       11520          nkpt =           5
================================================================================
P This job should need less than                       5.589 Mbytes of memory.
  Rough estimation (10% accuracy) of disk space for files :
_ WF disk file :      0.673 Mbytes ; DEN or POT disk file :      0.090 Mbytes.
================================================================================
 
 
 DATASET    2 : space group P1 (#  1); Bravais aP (primitive triclinic)
================================================================================
 Values of the parameters that define the memory need for DATASET  2.
     intxc =       0    ionmov =       0      iscf =       7    lmnmax =       6
     lnmax =       6     mgfft =      80  mpssoang =       3    mqgrid =    3805
     natom =       3  nloc_mem =       1    nspden =       1   nspinor =       1
    nsppol =       1      nsym =       1    n1xccc =    2501    ntypat =       2
    occopt =       1   xclevel =       2
-    mband =          14        mffmem =           1         mkmem =           5
       mpw =         628          nfft =       11520          nkpt =           5
================================================================================
P This job should need less than                       5.589 Mbytes of memory.
  Rough estimation (10% accuracy) of disk space for files :
_ WF disk file :      0.673 Mbytes ; DEN or POT disk file :      0.090 Mbytes.
================================================================================
 
 
 DATASET    3 : space group P1 (#  1); Bravais aP (primitive triclinic)
================================================================================
 Values of the parameters that define the memory need for DATASET  3.
     intxc =       0    ionmov =       0      iscf =       7    lmnmax =       6
     lnmax =       6     mgfft =      80  mpssoang =       3    mqgrid =    3805
     natom =       3  nloc_mem =       1    nspden =       1   nspinor =       1
    nsppol =       1      nsym =       1    n1xccc =    2501    ntypat =       2
    occopt =       1   xclevel =       2
-    mband =          14        mffmem =           1         mkmem =           5
       mpw =         628          nfft =       11520          nkpt =           5
================================================================================
P This job should need less than                       5.589 Mbytes of memory.
  Rough estimation (10% accuracy) of disk space for files :
_ WF disk file :      0.673 Mbytes ; DEN or POT disk file :      0.090 Mbytes.
================================================================================
 
 
 DATASET    4 : space group P1 (#  1); Bravais aP (primitive triclinic)
================================================================================
 Values of the parameters that define the memory need for DATASET  4.
     intxc =       0    ionmov =       0      iscf =       7    lmnmax =       6
     lnmax =       6     mgfft =      80  mpssoang =       3    mqgrid =    3805
     natom =       3  nloc_mem =       1    nspden =       1   nspinor =       1
    nsppol =       1      nsym =       1    n1xccc =    2501    ntypat =       2
    occopt =       1   xclevel =       2
-    mband =          14        mffmem =           1         mkmem =           5
       mpw =         628          nfft =       11520          nkpt =           5
================================================================================
P This job should need less than                       5.589 Mbytes of memory.
  Rough estimation (10% accuracy) of disk space for files :
_ WF disk file :      0.673 Mbytes ; DEN or POT disk file :      0.090 Mbytes.
================================================================================
 
--------------------------------------------------------------------------------
------------- Echo of variables that govern the present computation ------------
--------------------------------------------------------------------------------
-
- outvars: echo of selected default values                                      
-   iomode0 =  0 , fftalg0 =512 , wfoptalg0 =  0
-
- outvars: echo of global parameters not present in the input file              
-  max_nthreads =    0
-
 -outvars: echo values of preprocessed input variables --------
            acell      5.9526373186E+00  5.9526373186E+00  3.7794522658E+01 Bohr
              amu      9.59400000E+01  3.20660000E+01
      chksymbreak           0
             ecut      5.00000000E+00 Hartree
-          fftalg         512
           istwfk        0    0    0    0    9
              ixc          11
           jdtset        1    2    3    4
              kpt      1.66666667E-01  1.66666667E-01  5.00000000E-01
                       5.00000000E-01  1.66666667E-01  5.00000000E-01
                      -1.66666667E-01  1.66666667E-01  5.00000000E-01
                       1.66666667E-01  5.00000000E-01  5.00000000E-01
                       5.00000000E-01  5.00000000E-01  5.00000000E-01
         kptrlatt        3    0    0      0    3    0      0    0    1
          kptrlen      1.78579120E+01
P           mkmem           5
            natom           3
            nband          14
           ndtset           4
            ngfft          12      12      80
             nkpt           5
            nstep          10
             nsym           1
           ntypat           2
              occ      2.000000  2.000000  2.000000  2.000000  2.000000  2.000000
                       2.000000  2.000000  2.000000  2.000000  2.000000  2.000000
                       2.000000  0.000000
            rprim      5.0000000000E-01 -8.6602540378E-01  0.0000000000E+00
                       5.0000000000E-01  8.6602540378E-01  0.0000000000E+00
                       0.0000000000E+00  0.0000000000E+00  1.0000000000E+00
           shiftk      5.00000000E-01  5.00000000E-01  5.00000000E-01
          spgroup           1
            typat      1  2  2
              wtk        0.22222    0.22222    0.22222    0.22222    0.11111
           xangst      1.5750000000E+00  9.0932667397E-01  0.0000000000E+00
                       1.5750000000E+00 -9.0932667397E-01 -1.8388847000E+00
                       1.5750000000E+00 -9.0932667397E-01  1.8388847000E+00
            xcart      2.9763186593E+00  1.7183783791E+00  0.0000000000E+00
                       2.9763186593E+00 -1.7183783791E+00 -3.4749884730E+00
                       2.9763186593E+00 -1.7183783791E+00  3.4749884730E+00
             xred      3.3333333333E-01  6.6666666667E-01  0.0000000000E+00
                       6.6666666667E-01  3.3333333333E-01 -9.1944235000E-02
                       6.6666666667E-01  3.3333333333E-01  9.1944235000E-02
            znucl       42.00000   16.00000
 
================================================================================
 
 chkinp: Checking input parameters for consistency, jdtset=   1.
 
--- !ERROR
src_file: m_chkinp.F90
src_line: 4028
mpi_rank: 0
message: |
    For the SCF case, one and only one of the input tolerance criteria 
    tolwfr, toldff, tolrff, toldfe or tolvrs must differ from zero, while they are
    tolwfr=  0.000000E+00, toldff=  0.000000E+00, tolrff=  0.000000E+00, toldfe=  0.000000E+00
    and tolvrs=  0.000000E+00 for idtset: 1
    Action: change your input file and resubmit the job.
...
 
 
 chkinp: Checking input parameters for consistency, jdtset=   2.
 
--- !ERROR
src_file: m_chkinp.F90
src_line: 4028
mpi_rank: 0
message: |
    For the SCF case, one and only one of the input tolerance criteria 
    tolwfr, toldff, tolrff, toldfe or tolvrs must differ from zero, while they are
    tolwfr=  0.000000E+00, toldff=  0.000000E+00, tolrff=  0.000000E+00, toldfe=  0.000000E+00
    and tolvrs=  0.000000E+00 for idtset: 2
    Action: change your input file and resubmit the job.
...
 
 
 chkinp: Checking input parameters for consistency, jdtset=   3.
 
--- !ERROR
src_file: m_chkinp.F90
src_line: 4028
mpi_rank: 0
message: |
    For the SCF case, one and only one of the input tolerance criteria 
    tolwfr, toldff, tolrff, toldfe or tolvrs must differ from zero, while they are
    tolwfr=  0.000000E+00, toldff=  0.000000E+00, tolrff=  0.000000E+00, toldfe=  0.000000E+00
    and tolvrs=  0.000000E+00 for idtset: 3
    Action: change your input file and resubmit the job.
...
 
 
 chkinp: Checking input parameters for consistency, jdtset=   4.
 
--- !ERROR
src_file: m_chkinp.F90
src_line: 4028
mpi_rank: 0
message: |
    For the SCF case, one and only one of the input tolerance criteria 
    tolwfr, toldff, tolrff, toldfe or tolvrs must differ from zero, while they are
    tolwfr=  0.000000E+00, toldff=  0.000000E+00, tolrff=  0.000000E+00, toldfe=  0.000000E+00
    and tolvrs=  0.000000E+00 for idtset: 4
    Action: change your input file and resubmit the job.
...
 
 
--- !ERROR
src_file: m_chkinp.F90
src_line: 4142
mpi_rank: 0
message: |
    Checking consistency of input data against itself gave 4 inconsistencies.
    The details of the problems can be found above (or in output or log file), in an earlier WARNING.
     In parallel, the details might not even be printed there. Then, try running in sequential to see the details.
...
 
