
.Version 9.10.3 of ABINIT 
.(MPI version, prepared for a x86_64_linux_intel2021.6 computer) 

.Copyright (C) 1998-2022 ABINIT group . 
 ABINIT comes with ABSOLUTELY NO WARRANTY.
 It is free software, and you are welcome to redistribute it
 under certain conditions (GNU General Public License,
 see ~abinit/COPYING or http://www.gnu.org/copyleft/gpl.txt).

 ABINIT is a project of the Universite Catholique de Louvain,
 Corning Inc. and other collaborators, see ~abinit/doc/developers/contributors.txt .
 Please read https://docs.abinit.org/theory/acknowledgments for suggested
 acknowledgments of the ABINIT effort.
 For more information, see https://www.abinit.org .

.Starting date : Wed  6 May 2025.
- ( at 07h24 )
  
- input  file    -> mos2_ecut2.abi
- output file    -> mos2_ecut2.abo
- root for input  files -> mos2_ecut2i
- root for output files -> mos2_ecut2o
 
 
 DATASET   11 : space group P1 (#  1); Bravais aP (primitive triclinic)
================================================================================
 Values of the parameters that define the memory need for DATASET 11.
     intxc =       0    ionmov =       2      iscf =       7    lmnmax =       6
     lnmax =       6     mgfft =     192  mpssoang =       3    mqgrid =    9319
     natom =       3  nloc_mem =       1    nspden =       1   nspinor =       1
    nsppol =       1      nsym =       1    n1xccc =    2501    ntypat =       2
    occopt =       1   xclevel =       2
-    mband =          14        mffmem =           1         mkmem =           5
       mpw =        9124          nfft =      172800          nkpt =           5
================================================================================
P This job should need less than                      64.762 Mbytes of memory.
  Rough estimation (10% accuracy) of disk space for files :
_ WF disk file :      9.747 Mbytes ; DEN or POT disk file :      1.320 Mbytes.
================================================================================
 
 
 DATASET   21 : space group P1 (#  1); Bravais aP (primitive triclinic)
================================================================================
 Values of the parameters that define the memory need for DATASET 21.
     intxc =       0    ionmov =       2      iscf =       7    lmnmax =       6
     lnmax =       6     mgfft =     216  mpssoang =       3    mqgrid =   10066
     natom =       3  nloc_mem =       1    nspden =       1   nspinor =       1
    nsppol =       1      nsym =       1    n1xccc =    2501    ntypat =       2
    occopt =       1   xclevel =       2
-    mband =          14        mffmem =           1         mkmem =           5
       mpw =       11496          nfft =      221184          nkpt =           5
================================================================================
P This job should need less than                      82.035 Mbytes of memory.
  Rough estimation (10% accuracy) of disk space for files :
_ WF disk file :     12.281 Mbytes ; DEN or POT disk file :      1.690 Mbytes.
================================================================================
 
--------------------------------------------------------------------------------
------------- Echo of variables that govern the present computation ------------
--------------------------------------------------------------------------------
-
- outvars: echo of selected default values                                      
-   iomode0 =  0 , fftalg0 =512 , wfoptalg0 =  0
-
- outvars: echo of global parameters not present in the input file              
-  max_nthreads =    0
-
 -outvars: echo values of preprocessed input variables --------
            acell      5.9526373186E+00  5.9526373186E+00  3.7794522658E+01 Bohr
              amu      9.59400000E+01  3.20660000E+01
      chksymbreak           0
             ecut11    3.00000000E+01 Hartree
             ecut21    3.50000000E+01 Hartree
-          fftalg         512
           ionmov           2
           istwfk        0    0    0    0    9
              ixc          11
           jdtset       11   21
              kpt      1.66666667E-01  1.66666667E-01  5.00000000E-01
                       5.00000000E-01  1.66666667E-01  5.00000000E-01
                      -1.66666667E-01  1.66666667E-01  5.00000000E-01
                       1.66666667E-01  5.00000000E-01  5.00000000E-01
                       5.00000000E-01  5.00000000E-01  5.00000000E-01
         kptrlatt        3    0    0      0    3    0      0    0    1
          kptrlen      1.78579120E+01
P           mkmem           5
            natom           3
            nband          14
           ndtset           2
            ngfft11        30      30     192
            ngfft21        32      32     216
             nkpt           5
            nstep          10
             nsym           1
            ntime          10
           ntypat           2
              occ      2.000000  2.000000  2.000000  2.000000  2.000000  2.000000
                       2.000000  2.000000  2.000000  2.000000  2.000000  2.000000
                       2.000000  0.000000
        optforces           1
            rprim      5.0000000000E-01 -8.6602540378E-01  0.0000000000E+00
                       5.0000000000E-01  8.6602540378E-01  0.0000000000E+00
                       0.0000000000E+00  0.0000000000E+00  1.0000000000E+00
           shiftk      5.00000000E-01  5.00000000E-01  5.00000000E-01
          spgroup           1
           toldff      5.00000000E-05
           tolmxf      5.00000000E-04
            typat      1  2  2
              wtk        0.22222    0.22222    0.22222    0.22222    0.11111
           xangst      1.5750000000E+00  9.0932667397E-01  0.0000000000E+00
                       1.5750000000E+00 -9.0932667397E-01 -1.8388847000E+00
                       1.5750000000E+00 -9.0932667397E-01  1.8388847000E+00
            xcart      2.9763186593E+00  1.7183783791E+00  0.0000000000E+00
                       2.9763186593E+00 -1.7183783791E+00 -3.4749884730E+00
                       2.9763186593E+00 -1.7183783791E+00  3.4749884730E+00
             xred      3.3333333333E-01  6.6666666667E-01  0.0000000000E+00
                       6.6666666667E-01  3.3333333333E-01 -9.1944235000E-02
                       6.6666666667E-01  3.3333333333E-01  9.1944235000E-02
            znucl       42.00000   16.00000
 
================================================================================
 
 chkinp: Checking input parameters for consistency, jdtset=  11.
 
 chkinp: Checking input parameters for consistency, jdtset=  21.
 
================================================================================
== DATASET 11 ==================================================================
-   mpi_nproc: 1, omp_nthreads: -1 (-1 if OMP is not activated)
 

--- !DatasetInfo
iteration_state: {dtset: 11, }
dimensions: {natom: 3, nkpt: 5, mband: 14, nsppol: 1, nspinor: 1, nspden: 1, mpw: 9124, }
cutoff_energies: {ecut:  30.0, pawecutdg:  -1.0, }
electrons: {nelect:   2.60000000E+01, charge:   0.00000000E+00, occopt:   1.00000000E+00, tsmear:   1.00000000E-02, }
meta: {optdriver: 0, ionmov: 2, optcell: 0, iscf: 7, paral_kgb: 0, }
...

 Exchange-correlation functional for the present dataset will be:
  GGA: Perdew-Burke-Ernzerhof functional - ixc=11
 Citation for XC functional:
  J.P.Perdew, K.Burke, M.Ernzerhof, PRL 77, 3865 (1996)
 
 Real(R)+Recip(G) space primitive vectors, cartesian coordinates (Bohr,Bohr^-1):
 R(1)=  2.9763187 -5.1551351  0.0000000  G(1)=  0.1679928 -0.0969907  0.0000000
 R(2)=  2.9763187  5.1551351  0.0000000  G(2)=  0.1679928  0.0969907  0.0000000
 R(3)=  0.0000000  0.0000000 37.7945227  G(3)=  0.0000000  0.0000000  0.0264589
 Unit cell volume ucvol=  1.1597873E+03 bohr^3
 Angles (23,13,12)=  9.00000000E+01  9.00000000E+01  1.20000000E+02 degrees
 
 getcut: wavevector=  0.0000  0.0000  0.0000  ngfft=  30  30 192
         ecut(hartree)=     30.000   => boxcut(ratio)=   2.04554
 
--- Pseudopotential description ------------------------------------------------
- pspini: atom type   1  psp file is ./persudo/Mo.psp8
- pspatm: opening atomic psp file    ./persudo/Mo.psp8
- Mo    ONCVPSP-3.2.3.1  r_core=   1.45541   1.45541   1.35488
- 42.00000  14.00000    170510                znucl, zion, pspdat
    8   11    2    4       600   0.00000      pspcod,pspxc,lmax,lloc,mmax,r2well
    5.99000000000000    3.00000000000000    0.00000000000000   rchrg,fchrg,qchrg
     nproj     2     2     2
     extension_switch     1
  pspatm : epsatm=   15.95693586
         --- l  ekb(1:nproj) -->
             0   13.833287    1.350687
             1    8.015347    1.134034
             2    2.765699    0.969071
 pspatm: atomic psp has been read  and splines computed
 
- pspini: atom type   2  psp file is ./persudo/S.psp8
- pspatm: opening atomic psp file    ./persudo/S.psp8
- S     ONCVPSP-4.0.1  r_core=   1.45687   1.45687   1.45687
- 16.00000   6.00000    220131                znucl, zion, pspdat
    8   11    2    4       600   0.00000      pspcod,pspxc,lmax,lloc,mmax,r2well
    5.99000000000000    6.00000000000000    0.00000000000000   rchrg,fchrg,qchrg
     nproj     2     2     2
     extension_switch     1
  pspatm : epsatm=    9.04179351
         --- l  ekb(1:nproj) -->
             0    6.774234    0.542270
             1    3.022426    0.737017
             2   -5.033160   -1.531047
 pspatm: atomic psp has been read  and splines computed
 
   8.85053595E+02                                ecore*ucvol(ha*bohr**3)
--------------------------------------------------------------------------------
 
_setup2: Arith. and geom. avg. npw (full set) are    9098.667    9098.641
 
================================================================================
 
=== [ionmov= 2] Broyden-Fletcher-Goldfard-Shanno method (forces)            
================================================================================
 
--- Iteration: ( 1/10) Internal Cycle: (1/1)
--------------------------------------------------------------------------------
 
---SELF-CONSISTENT-FIELD CONVERGENCE--------------------------------------------

--- !BeginCycle
iteration_state: {dtset: 11, itime: 1, icycle: 1, }
solver: {iscf: 7, nstep: 10, nline: 4, wfoptalg: 0, }
tolerances: {toldff: 5.00E-05, }
...
 
     iter   Etot(hartree)      deltaE(h)  residm     vres2    diffor    maxfor
 ETOT  1  -91.417367026966    -9.142E+01 7.667E-02 1.123E+04 7.762E-02 7.762E-02
 ETOT  2  -86.027690547965     5.390E+00 5.698E-02 1.005E+05 1.138E+00 1.066E+00
 ETOT  3  -92.226935040722    -6.199E+00 5.224E-02 2.271E+03 9.054E-01 1.607E-01
 ETOT  4  -92.315491120660    -8.856E-02 5.484E-03 8.749E+02 4.135E-02 1.194E-01
 ETOT  5  -92.328444985902    -1.295E-02 5.396E-04 5.608E+02 1.114E-02 1.094E-01
 ETOT  6  -92.331868621250    -3.424E-03 3.447E-04 4.315E+02 8.505E-03 1.009E-01
 ETOT  7  -92.338672313463    -6.804E-03 1.705E-04 1.998E+02 1.530E-02 8.560E-02
 ETOT  8  -92.341368003883    -2.696E-03 1.011E-04 1.045E+02 8.744E-03 7.685E-02
 ETOT  9  -92.342099091907    -7.311E-04 4.910E-05 7.660E+01 2.464E-03 7.441E-02
 ETOT 10  -92.342754385408    -6.553E-04 2.966E-05 4.456E+01 4.458E-03 6.996E-02
 
 Cartesian components of stress tensor (hartree/bohr^3)
  sigma(1 1)=  7.03918503E-05  sigma(3 2)=  3.96337072E-09
  sigma(2 2)=  1.09429859E-04  sigma(3 1)= -4.00178810E-07
  sigma(3 3)=  3.67570593E-04  sigma(2 1)= -1.70654988E-07
 
 
 scprqt:  WARNING -
  nstep=   10 was not enough SCF cycles to converge;
  maximum force difference=  4.458E-03 exceeds toldff=  5.000E-05
 

--- !ResultsGS
iteration_state: {dtset: 11, itime: 1, icycle: 1, }
comment   : Summary of ground state results
lattice_vectors:
- [  2.9763187,  -5.1551351,   0.0000000, ]
- [  2.9763187,   5.1551351,   0.0000000, ]
- [  0.0000000,   0.0000000,  37.7945227, ]
lattice_lengths: [   5.95264,    5.95264,   37.79452, ]
lattice_angles: [ 90.000,  90.000, 120.000, ] # degrees, (23, 13, 12)
lattice_volume:   1.1597873E+03
convergence: {deltae: -6.553E-04, res2:  4.456E+01, residm:  2.966E-05, diffor:  4.458E-03, }
etotal    :  -9.23427544E+01
entropy   :   0.00000000E+00
fermie    :  -7.87016367E-02
cartesian_stress_tensor: # hartree/bohr^3
- [  7.03918503E-05,  -1.70654988E-07,  -4.00178810E-07, ]
- [ -1.70654988E-07,   1.09429859E-04,   3.96337072E-09, ]
- [ -4.00178810E-07,   3.96337072E-09,   3.67570593E-04, ]
pressure_GPa:  -5.3683E+00
xred      :
- [  3.3333E-01,   6.6667E-01,   0.0000E+00, Mo]
- [  6.6667E-01,   3.3333E-01,  -9.1944E-02,  S]
- [  6.6667E-01,   3.3333E-01,   9.1944E-02,  S]
cartesian_forces: # hartree/bohr
- [  5.23377403E-06,   7.92365761E-03,   6.92712714E-04, ]
- [ -2.86417021E-05,  -3.94853270E-03,   6.92637669E-02, ]
- [  2.34079280E-05,  -3.97512490E-03,  -6.99564796E-02, ]
force_length_stats: {min:   7.95388133E-03, max:   7.00693314E-02, mean:   4.91331472E-02, }
...

 Integrated electronic density in atomic spheres:
 ------------------------------------------------
 Atom  Sphere_radius  Integrated_density
    1        2.00000         10.43238518
    2        2.00000          3.79408872
    3        2.00000          3.79224264
 
---OUTPUT-----------------------------------------------------------------------
 
 Cartesian coordinates (xcart) [bohr]
  2.97631865929489E+00  1.71837837912920E+00  0.00000000000000E+00
  2.97631865929489E+00 -1.71837837912920E+00 -3.47498847295358E+00
  2.97631865929489E+00 -1.71837837912920E+00  3.47498847295358E+00
 Reduced coordinates (xred)
  3.33333333333333E-01  6.66666666666667E-01  0.00000000000000E+00
  6.66666666666667E-01  3.33333333333333E-01 -9.19442350000000E-02
  6.66666666666667E-01  3.33333333333333E-01  9.19442350000000E-02
 Cartesian forces (fcart) [Ha/bohr]; max,rms= 6.99565E-02 3.29748E-02 (free atoms)
  5.23377403390370E-06  7.92365760796743E-03  6.92712713840753E-04
 -2.86417020660835E-05 -3.94853270325938E-03  6.92637668852634E-02
  2.34079280321798E-05 -3.97512490470805E-03 -6.99564795991042E-02
 Gradient of E wrt nuclear positions in reduced coordinates (gred)
  4.08319483721459E-02 -4.08631031307772E-02 -2.61807463585401E-02
 -2.02699728474032E-02  2.04404665119897E-02 -2.61779100690363E+00
 -2.05619755247427E-02  2.04226366187874E-02  2.64397175326217E+00
 Total energy (etotal) [Ha]= -9.23427543854077E+01
 
--- Iteration: ( 2/10) Internal Cycle: (1/1)
--------------------------------------------------------------------------------
 
---SELF-CONSISTENT-FIELD CONVERGENCE--------------------------------------------

--- !BeginCycle
iteration_state: {dtset: 11, itime: 2, icycle: 1, }
solver: {iscf: 7, nstep: 10, nline: 4, wfoptalg: 0, }
tolerances: {toldff: 5.00E-05, }
...
 
     iter   Etot(hartree)      deltaE(h)  residm     vres2    diffor    maxfor
 ETOT  1  -92.350709933720    -9.235E+01 1.596E-05 1.446E+02 6.896E-03 7.531E-02
 ETOT  2  -92.351420529897    -7.106E-04 6.448E-06 6.791E+00 2.258E-02 5.517E-02
 ETOT  3  -92.349628691365     1.792E-03 1.766E-05 4.447E+01 2.115E-02 7.389E-02
 ETOT  4  -92.351843965240    -2.215E-03 1.041E-05 1.828E+00 1.361E-02 6.028E-02
 ETOT  5  -92.351862669515    -1.870E-05 8.348E-07 7.074E-01 1.159E-03 6.009E-02
 ETOT  6  -92.351866522442    -3.853E-06 2.449E-07 3.520E-01 5.569E-04 5.979E-02
 ETOT  7  -92.351866248414     2.740E-07 1.215E-07 4.136E-01 2.190E-04 5.994E-02
 ETOT  8  -92.351866067783     1.806E-07 7.210E-08 4.107E-01 8.652E-05 6.003E-02
 ETOT  9  -92.351866444027    -3.762E-07 2.663E-08 3.319E-01 9.778E-05 6.000E-02
 ETOT 10  -92.351866732479    -2.885E-07 2.602E-08 2.709E-01 6.153E-05 5.994E-02
 
 Cartesian components of stress tensor (hartree/bohr^3)
  sigma(1 1)=  7.20380984E-05  sigma(3 2)= -6.32189082E-09
  sigma(2 2)=  1.11292129E-04  sigma(3 1)=  8.19136429E-09
  sigma(3 3)=  3.68821307E-04  sigma(2 1)= -7.01511037E-11
 
 
 scprqt:  WARNING -
  nstep=   10 was not enough SCF cycles to converge;
  maximum force difference=  6.153E-05 exceeds toldff=  5.000E-05
 

--- !ResultsGS
iteration_state: {dtset: 11, itime: 2, icycle: 1, }
comment   : Summary of ground state results
lattice_vectors:
- [  2.9763187,  -5.1551351,   0.0000000, ]
- [  2.9763187,   5.1551351,   0.0000000, ]
- [  0.0000000,   0.0000000,  37.7945227, ]
lattice_lengths: [   5.95264,    5.95264,   37.79452, ]
lattice_angles: [ 90.000,  90.000, 120.000, ] # degrees, (23, 13, 12)
lattice_volume:   1.1597873E+03
convergence: {deltae: -2.885E-07, res2:  2.709E-01, residm:  2.602E-08, diffor:  6.153E-05, }
etotal    :  -9.23518667E+01
entropy   :   0.00000000E+00
fermie    :  -6.78896490E-02
cartesian_stress_tensor: # hartree/bohr^3
- [  7.20380984E-05,  -7.01511037E-11,   8.19136429E-09, ]
- [ -7.01511037E-11,   1.11292129E-04,  -6.32189082E-09, ]
- [  8.19136429E-09,  -6.32189082E-09,   3.68821307E-04, ]
pressure_GPa:  -5.4150E+00
xred      :
- [  3.3257E-01,   6.6744E-01,   1.8328E-05, Mo]
- [  6.6704E-01,   3.3295E-01,  -9.0112E-02,  S]
- [  6.6706E-01,   3.3295E-01,   9.0093E-02,  S]
cartesian_forces: # hartree/bohr
- [ -8.47656104E-07,   6.75899245E-03,  -4.20731261E-04, ]
- [  1.67099664E-06,  -3.37941389E-03,   5.99361015E-02, ]
- [ -8.23340535E-07,  -3.37957856E-03,  -5.95153702E-02, ]
force_length_stats: {min:   6.77207460E-03, max:   6.00312977E-02, mean:   4.21382066E-02, }
...

 Integrated electronic density in atomic spheres:
 ------------------------------------------------
 Atom  Sphere_radius  Integrated_density
    1        2.00000         10.42769504
    2        2.00000          3.82139438
    3        2.00000          3.82067350
 
---OUTPUT-----------------------------------------------------------------------
 
 Cartesian coordinates (xcart) [bohr]
  2.97632389306892E+00  1.72630203673717E+00  6.92712713840753E-04
  2.97629001759282E+00 -1.72232691183246E+00 -3.40572470606831E+00
  2.97634206722292E+00 -1.72235350403391E+00  3.40503199335447E+00
 Reduced coordinates (xred)
  3.32565691726033E-01  6.67436066746305E-01  1.83283890132527E-05
  6.67044825891998E-01  3.32945550910574E-01 -9.01115946591614E-02
  6.67056149048635E-01  3.32951715676454E-01  9.00932662701481E-02
 Cartesian forces (fcart) [Ha/bohr]; max,rms= 5.99361E-02 2.82904E-02 (free atoms)
 -8.47656103851804E-07  6.75899244578074E-03 -4.20731261251212E-04
  1.67099663932885E-06 -3.37941388504759E-03  5.99361014847821E-02
 -8.23340535477043E-07 -3.37957856073315E-03 -5.95153702235308E-02
 Gradient of E wrt nuclear positions in reduced coordinates (gred)
  3.48460423452603E-02 -3.48409965559031E-02  1.59013371861670E-02
 -1.74263086810616E-02  1.74163618441071E-02 -2.26525634558157E+00
 -1.74197336641986E-02  1.74246347117960E-02  2.24935500839541E+00
 Total energy (etotal) [Ha]= -9.23518667324790E+01
 
 Difference of energy with previous step (new-old):
           Absolute (Ha)=-9.11235E-03
           Relative     =-9.86747E-05
 
--- Iteration: ( 3/10) Internal Cycle: (1/1)
--------------------------------------------------------------------------------
 
---SELF-CONSISTENT-FIELD CONVERGENCE--------------------------------------------

--- !BeginCycle
iteration_state: {dtset: 11, itime: 3, icycle: 1, }
solver: {iscf: 7, nstep: 10, nline: 4, wfoptalg: 0, }
tolerances: {toldff: 5.00E-05, }
...
 
     iter   Etot(hartree)      deltaE(h)  residm     vres2    diffor    maxfor
 ETOT  1  -91.887076766473    -9.189E+01 3.173E-03 1.188E+04 2.273E-01 2.868E-01
 ETOT  2  -91.817637127949     6.944E-02 1.388E-03 5.347E+03 4.411E-01 1.542E-01
 ETOT  3  -92.344533382112    -5.269E-01 5.833E-03 1.053E+03 1.909E-01 3.671E-02
 ETOT  4  -92.378576973924    -3.404E-02 2.409E-04 2.217E+02 2.944E-02 7.885E-03
 ETOT  5  -92.379014431479    -4.375E-04 7.059E-05 2.047E+02 9.315E-04 8.344E-03
 ETOT  6  -92.379291666752    -2.772E-04 3.574E-05 1.660E+02 2.461E-03 8.053E-03
 ETOT  7  -92.379513780213    -2.221E-04 2.228E-05 1.245E+02 1.892E-03 7.979E-03
 ETOT  8  -92.379608705665    -9.493E-05 2.934E-05 1.055E+02 8.783E-04 8.027E-03
 ETOT  9  -92.379715747697    -1.070E-04 3.769E-05 7.452E+01 1.128E-03 7.919E-03
 ETOT 10  -92.379742096628    -2.635E-05 3.897E-05 5.970E+01 4.481E-04 7.888E-03
 
 Cartesian components of stress tensor (hartree/bohr^3)
  sigma(1 1)= -3.18902799E-05  sigma(3 2)=  1.09532530E-07
  sigma(2 2)=  2.66977417E-05  sigma(3 1)=  8.99758082E-09
  sigma(3 3)=  4.57501100E-06  sigma(2 1)= -2.67200941E-09
 
 
 scprqt:  WARNING -
  nstep=   10 was not enough SCF cycles to converge;
  maximum force difference=  4.481E-04 exceeds toldff=  5.000E-05
 

--- !ResultsGS
iteration_state: {dtset: 11, itime: 3, icycle: 1, }
comment   : Summary of ground state results
lattice_vectors:
- [  2.9763187,  -5.1551351,   0.0000000, ]
- [  2.9763187,   5.1551351,   0.0000000, ]
- [  0.0000000,   0.0000000,  37.7945227, ]
lattice_lengths: [   5.95264,    5.95264,   37.79452, ]
lattice_angles: [ 90.000,  90.000, 120.000, ] # degrees, (23, 13, 12)
lattice_volume:   1.1597873E+03
convergence: {deltae: -2.635E-05, res2:  5.970E+01, residm:  3.897E-05, diffor:  4.481E-04, }
etotal    :  -9.23797421E+01
entropy   :   0.00000000E+00
fermie    :  -9.25319451E-02
cartesian_stress_tensor: # hartree/bohr^3
- [ -3.18902799E-05,  -2.67200941E-09,   8.99758082E-09, ]
- [ -2.67200941E-09,   2.66977417E-05,   1.09532530E-07, ]
- [  8.99758082E-09,   1.09532530E-07,   4.57501100E-06, ]
pressure_GPa:   6.0561E-03
xred      :
- [  3.2795E-01,   6.7205E-01,  -5.9839E-05, Mo]
- [  6.6936E-01,   3.3064E-01,  -7.8941E-02,  S]
- [  6.6936E-01,   3.3064E-01,   7.9001E-02,  S]
cartesian_forces: # hartree/bohr
- [ -9.24501669E-07,  -7.88826394E-03,   1.02692184E-03, ]
- [  2.30678973E-06,   3.97062968E-03,   7.66996143E-04, ]
- [ -1.38228806E-06,   3.91763426E-03,  -1.79391799E-03, ]
force_length_stats: {min:   4.04403121E-03, max:   7.95482730E-03, mean:   5.43589563E-03, }
...

 Integrated electronic density in atomic spheres:
 ------------------------------------------------
 Atom  Sphere_radius  Integrated_density
    1        2.00000         10.50266676
    2        2.00000          3.94311314
    3        2.00000          3.93949020
 
---OUTPUT-----------------------------------------------------------------------
 
 Cartesian coordinates (xcart) [bohr]
  2.97631797105758E+00  1.77391162882926E+00 -2.26158128948492E-03
  2.97630154819238E+00 -1.74613102449881E+00 -2.98354929877145E+00
  2.97633645863471E+00 -1.74615898345965E+00  2.98581088006093E+00
 Reduced coordinates (xred)
  3.27947010736348E-01  6.72052758025874E-01 -5.98388636884501E-05
  6.69355539735157E-01  3.30638711182012E-01 -7.89413144807263E-02
  6.69364116195162E-01  3.30641864125448E-01  7.90011533444147E-02
 Cartesian forces (fcart) [Ha/bohr]; max,rms= 7.88826E-03 3.30319E-03 (free atoms)
 -9.24501669147722E-07 -7.88826394362747E-03  1.02692184360118E-03
  2.30678973220132E-06  3.97062967962689E-03  7.66996142824288E-04
 -1.38228806305359E-06  3.91763426400058E-03 -1.79391798642546E-03
 Gradient of E wrt nuclear positions in reduced coordinates (gred)
 -4.06623150172133E-02  4.06678182403501E-02 -3.88120208856849E-02
  2.04622668376756E-02 -2.04759983203217E-02 -2.89882530983509E-02
  2.02000481795376E-02 -2.01918199200285E-02  6.78002739840359E-02
 Total energy (etotal) [Ha]= -9.23797420966281E+01
 
 Difference of energy with previous step (new-old):
           Absolute (Ha)=-2.78754E-02
           Relative     =-3.01793E-04
 
--- Iteration: ( 4/10) Internal Cycle: (1/1)
--------------------------------------------------------------------------------
 
---SELF-CONSISTENT-FIELD CONVERGENCE--------------------------------------------

--- !BeginCycle
iteration_state: {dtset: 11, itime: 4, icycle: 1, }
solver: {iscf: 7, nstep: 10, nline: 4, wfoptalg: 0, }
tolerances: {toldff: 5.00E-05, }
...
 
     iter   Etot(hartree)      deltaE(h)  residm     vres2    diffor    maxfor
 ETOT  1  -92.379798601926    -9.238E+01 2.916E-04 1.006E+01 4.235E-03 9.756E-03
 ETOT  2  -92.379777884048     2.072E-05 5.517E-04 1.894E+00 4.449E-03 5.308E-03
 ETOT  3  -92.379680284598     9.760E-05 2.692E-04 1.387E+00 4.405E-03 6.328E-03
 ETOT  4  -92.379845403638    -1.651E-04 8.372E-04 4.047E-01 2.900E-03 6.078E-03
 ETOT  5  -92.379846723879    -1.320E-06 3.628E-04 3.181E-01 2.878E-04 5.973E-03
 ETOT  6  -92.379847628242    -9.044E-07 1.032E-03 2.361E-01 1.305E-04 5.916E-03
 ETOT  7  -92.379848206365    -5.781E-07 3.740E-04 1.694E-01 1.258E-04 5.959E-03
 ETOT  8  -92.379848331006    -1.246E-07 9.821E-04 1.397E-01 4.802E-05 5.956E-03
 ETOT  9  -92.379848349344    -1.834E-08 2.956E-04 1.257E-01 6.847E-06 5.962E-03
 
 At SCF step    9, forces are converged : 
  for the second time, max diff in force=  6.847E-06 < toldff=  5.000E-05
 
 Cartesian components of stress tensor (hartree/bohr^3)
  sigma(1 1)= -3.62059340E-05  sigma(3 2)=  4.15911319E-08
  sigma(2 2)=  2.05741726E-05  sigma(3 1)=  8.15410112E-09
  sigma(3 3)=  1.51959886E-05  sigma(2 1)= -1.64361246E-09
 

--- !ResultsGS
iteration_state: {dtset: 11, itime: 4, icycle: 1, }
comment   : Summary of ground state results
lattice_vectors:
- [  2.9763187,  -5.1551351,   0.0000000, ]
- [  2.9763187,   5.1551351,   0.0000000, ]
- [  0.0000000,   0.0000000,  37.7945227, ]
lattice_lengths: [   5.95264,    5.95264,   37.79452, ]
lattice_angles: [ 90.000,  90.000, 120.000, ] # degrees, (23, 13, 12)
lattice_volume:   1.1597873E+03
convergence: {deltae: -1.834E-08, res2:  1.257E-01, residm:  2.956E-04, diffor:  6.847E-06, }
etotal    :  -9.23798483E+01
entropy   :   0.00000000E+00
fermie    :  -7.20672786E-02
cartesian_stress_tensor: # hartree/bohr^3
- [ -3.62059340E-05,  -1.64361246E-09,   8.15410112E-09, ]
- [ -1.64361246E-09,   2.05741726E-05,   4.15911319E-08, ]
- [  8.15410112E-09,   4.15911319E-08,   1.51959886E-05, ]
pressure_GPa:   4.2736E-03
xred      :
- [  3.2867E-01,   6.7133E-01,  -3.3250E-05, Mo]
- [  6.6899E-01,   3.3100E-01,  -7.8802E-02,  S]
- [  6.6900E-01,   3.3100E-01,   7.8835E-02,  S]
cartesian_forces: # hartree/bohr
- [  2.90985162E-07,  -5.96243497E-03,   6.54427305E-04, ]
- [  1.42308013E-06,   2.99125690E-03,  -1.59429968E-03, ]
- [ -1.71406529E-06,   2.97117808E-03,   9.39872370E-04, ]
force_length_stats: {min:   3.11628981E-03, max:   5.99824191E-03, mean:   4.16804504E-03, }
...

 Integrated electronic density in atomic spheres:
 ------------------------------------------------
 Atom  Sphere_radius  Integrated_density
    1        2.00000         10.50653504
    2        2.00000          3.94188751
    3        2.00000          3.94108707
 
---OUTPUT-----------------------------------------------------------------------
 
 Cartesian coordinates (xcart) [bohr]
  2.97631696914129E+00  1.76645100884628E+00 -1.25667578835594E-03
  2.97630402536407E+00 -1.74237395110131E+00 -2.97827210694477E+00
  2.97633498337930E+00 -1.74245543687418E+00  2.97952878273313E+00
 Reduced coordinates (xred)
  3.28670452936628E-01  6.71328979196222E-01 -3.32502092892418E-05
  6.68991554823970E-01  3.31003528387040E-01 -7.88016859987246E-02
  6.69004658906069E-01  3.31000825750072E-01  7.88349362080138E-02
 Cartesian forces (fcart) [Ha/bohr]; max,rms= 5.96243E-03 2.52057E-03 (free atoms)
  2.90985162075628E-07 -5.96243497454085E-03  6.54427305201225E-04
  1.42308012931460E-06  2.99125689568329E-03 -1.59429967514651E-03
 -1.71406529139023E-06  2.97117807885755E-03  9.39872369945287E-04
 Gradient of E wrt nuclear positions in reduced coordinates (gred)
 -3.07380241062118E-02  3.07362919770768E-02 -2.47337676142537E-02
  1.54160979879474E-02 -1.54245690678325E-02  6.02557951955091E-02
  1.53219261182644E-02 -1.53117229092444E-02 -3.55220275812555E-02
 Total energy (etotal) [Ha]= -9.23798483493440E+01
 
 Difference of energy with previous step (new-old):
           Absolute (Ha)=-1.06253E-04
           Relative     =-1.15017E-06
 
--- Iteration: ( 5/10) Internal Cycle: (1/1)
--------------------------------------------------------------------------------
 
---SELF-CONSISTENT-FIELD CONVERGENCE--------------------------------------------

--- !BeginCycle
iteration_state: {dtset: 11, itime: 5, icycle: 1, }
solver: {iscf: 7, nstep: 10, nline: 4, wfoptalg: 0, }
tolerances: {toldff: 5.00E-05, }
...
 
     iter   Etot(hartree)      deltaE(h)  residm     vres2    diffor    maxfor
 ETOT  1  -92.379084200609    -9.238E+01 1.067E-03 3.630E+01 8.018E-03 1.398E-02
 ETOT  2  -92.378554878455     5.293E-04 3.297E-04 1.639E+01 1.959E-02 6.382E-03
 ETOT  3  -92.376215034935     2.340E-03 1.923E-04 4.278E+01 1.864E-02 1.225E-02
 ETOT  4  -92.379912723112    -3.698E-03 2.043E-04 5.035E-01 1.233E-02 2.360E-03
 ETOT  5  -92.379919833246    -7.110E-06 1.206E-04 2.934E-01 7.701E-04 2.836E-03
 ETOT  6  -92.379920586993    -7.537E-07 1.022E-04 1.974E-01 2.061E-04 2.990E-03
 ETOT  7  -92.379921146149    -5.592E-07 6.523E-05 1.651E-01 1.175E-04 2.982E-03
 ETOT  8  -92.379921754887    -6.087E-07 5.782E-05 9.549E-02 2.171E-04 2.982E-03
 ETOT  9  -92.379921878204    -1.233E-07 3.674E-05 7.717E-02 3.466E-05 2.990E-03
 ETOT 10  -92.379922023284    -1.451E-07 3.313E-05 5.076E-02 8.157E-05 2.992E-03
 
 Cartesian components of stress tensor (hartree/bohr^3)
  sigma(1 1)= -3.02328423E-05  sigma(3 2)= -1.13023416E-07
  sigma(2 2)=  1.85309989E-05  sigma(3 1)=  3.79302138E-09
  sigma(3 3)=  2.48710718E-05  sigma(2 1)=  4.37180462E-09
 
 
 scprqt:  WARNING -
  nstep=   10 was not enough SCF cycles to converge;
  maximum force difference=  8.157E-05 exceeds toldff=  5.000E-05
 

--- !ResultsGS
iteration_state: {dtset: 11, itime: 5, icycle: 1, }
comment   : Summary of ground state results
lattice_vectors:
- [  2.9763187,  -5.1551351,   0.0000000, ]
- [  2.9763187,   5.1551351,   0.0000000, ]
- [  0.0000000,   0.0000000,  37.7945227, ]
lattice_lengths: [   5.95264,    5.95264,   37.79452, ]
lattice_angles: [ 90.000,  90.000, 120.000, ] # degrees, (23, 13, 12)
lattice_volume:   1.1597873E+03
convergence: {deltae: -1.451E-07, res2:  5.076E-02, residm:  3.313E-05, diffor:  8.157E-05, }
etotal    :  -9.23799220E+01
entropy   :   0.00000000E+00
fermie    :  -7.37674875E-02
cartesian_stress_tensor: # hartree/bohr^3
- [ -3.02328423E-05,   4.37180462E-09,   3.79302138E-09, ]
- [  4.37180462E-09,   1.85309989E-05,  -1.13023416E-07, ]
- [  3.79302138E-09,  -1.13023416E-07,   2.48710718E-05, ]
pressure_GPa:  -1.2915E-01
xred      :
- [  3.3186E-01,   6.6814E-01,   7.1431E-05, Mo]
- [  6.6739E-01,   3.3261E-01,  -7.9083E-02,  S]
- [  6.6742E-01,   3.3259E-01,   7.9012E-02,  S]
cartesian_forces: # hartree/bohr
- [  1.27393698E-06,   2.99160985E-03,  -1.08984489E-03, ]
- [ -4.53503296E-07,  -1.51558435E-03,   1.33567708E-03, ]
- [ -8.20433687E-07,  -1.47602550E-03,  -2.45832184E-04, ]
force_length_stats: {min:   1.49635738E-03, max:   3.18394300E-03, mean:   2.23348539E-03, }
...

 Integrated electronic density in atomic spheres:
 ------------------------------------------------
 Atom  Sphere_radius  Integrated_density
    1        2.00000         10.53206251
    2        2.00000          3.93061251
    3        2.00000          3.93481683
 
---OUTPUT-----------------------------------------------------------------------
 
 Cartesian coordinates (xcart) [bohr]
  2.97631536125942E+00  1.73358543977714E+00  2.69970056026784E-03
  2.97631251409980E+00 -1.72585461944755E+00 -2.98890335156886E+00
  2.97632810252545E+00 -1.72610919945879E+00  2.98620365100859E+00
 Reduced coordinates (xred)
  3.31857836318464E-01  6.68141055589344E-01  7.14310003255696E-05
  6.67390759860081E-01  3.32607175443294E-01 -7.90829766164253E-02
  6.67418070488123E-01  3.32585102300696E-01  7.90115456160997E-02
 Cartesian forces (fcart) [Ha/bohr]; max,rms= 2.99161E-03 1.35227E-03 (free atoms)
  1.27393698340954E-06  2.99160985383105E-03 -1.08984489174462E-03
 -4.53503296219601E-07 -1.51558435061299E-03  1.33567707525205E-03
 -8.20433687189938E-07 -1.47602550321806E-03 -2.45832183507434E-04
 Gradient of E wrt nuclear positions in reduced coordinates (gred)
  1.54183614324250E-02 -1.54259447172540E-02  4.11901674544345E-02
 -7.81169236919721E-03  7.81439190984239E-03 -5.04812774840013E-02
 -7.60666906322776E-03  7.61155280741156E-03  9.29111002956675E-03
 Total energy (etotal) [Ha]= -9.23799220232840E+01
 
 Difference of energy with previous step (new-old):
           Absolute (Ha)=-7.36739E-05
           Relative     =-7.97511E-07
 
--- Iteration: ( 6/10) Internal Cycle: (1/1)
--------------------------------------------------------------------------------
 
---SELF-CONSISTENT-FIELD CONVERGENCE--------------------------------------------

--- !BeginCycle
iteration_state: {dtset: 11, itime: 6, icycle: 1, }
solver: {iscf: 7, nstep: 10, nline: 4, wfoptalg: 0, }
tolerances: {toldff: 5.00E-05, }
...
 
     iter   Etot(hartree)      deltaE(h)  residm     vres2    diffor    maxfor
 ETOT  1  -92.379627573607    -9.238E+01 1.152E-04 1.685E+01 4.449E-03 6.397E-03
 ETOT  2  -92.379279108706     3.485E-04 1.630E-05 7.219E+00 1.063E-02 4.848E-03
 ETOT  3  -92.378253558718     1.026E-03 1.966E-05 2.181E+01 1.390E-02 9.057E-03
 ETOT  4  -92.379946974300    -1.693E-03 1.079E-05 3.827E-01 8.419E-03 1.137E-03
 ETOT  5  -92.379950397637    -3.423E-06 5.251E-06 2.723E-01 3.447E-04 9.322E-04
 ETOT  6  -92.379951290836    -8.932E-07 5.659E-07 1.714E-01 2.357E-04 7.574E-04
 ETOT  7  -92.379951441927    -1.511E-07 1.545E-06 1.503E-01 6.589E-05 7.177E-04
 ETOT  8  -92.379951756045    -3.141E-07 2.380E-07 8.766E-02 1.231E-04 5.947E-04
 ETOT  9  -92.379951908579    -1.525E-07 7.355E-07 6.754E-02 4.302E-05 5.607E-04
 ETOT 10  -92.379952071113    -1.625E-07 1.122E-07 3.292E-02 1.037E-04 4.998E-04
 
 Cartesian components of stress tensor (hartree/bohr^3)
  sigma(1 1)= -3.21774121E-05  sigma(3 2)= -5.87457638E-08
  sigma(2 2)=  1.92494726E-05  sigma(3 1)=  5.02970700E-09
  sigma(3 3)=  2.10214517E-05  sigma(2 1)=  6.15243809E-10
 
 
 scprqt:  WARNING -
  nstep=   10 was not enough SCF cycles to converge;
  maximum force difference=  1.037E-04 exceeds toldff=  5.000E-05
 

--- !ResultsGS
iteration_state: {dtset: 11, itime: 6, icycle: 1, }
comment   : Summary of ground state results
lattice_vectors:
- [  2.9763187,  -5.1551351,   0.0000000, ]
- [  2.9763187,   5.1551351,   0.0000000, ]
- [  0.0000000,   0.0000000,  37.7945227, ]
lattice_lengths: [   5.95264,    5.95264,   37.79452, ]
lattice_angles: [ 90.000,  90.000, 120.000, ] # degrees, (23, 13, 12)
lattice_volume:   1.1597873E+03
convergence: {deltae: -1.625E-07, res2:  3.292E-02, residm:  1.122E-07, diffor:  1.037E-04, }
etotal    :  -9.23799521E+01
entropy   :   0.00000000E+00
fermie    :  -7.37951577E-02
cartesian_stress_tensor: # hartree/bohr^3
- [ -3.21774121E-05,   6.15243809E-10,   5.02970700E-09, ]
- [  6.15243809E-10,   1.92494726E-05,  -5.87457638E-08, ]
- [  5.02970700E-09,  -5.87457638E-08,   2.10214517E-05, ]
pressure_GPa:  -7.9373E-02
xred      :
- [  3.3078E-01,   6.6922E-01,   2.2677E-05, Mo]
- [  6.6793E-01,   3.3206E-01,  -7.8974E-02,  S]
- [  6.6795E-01,   3.3205E-01,   7.8952E-02,  S]
cartesian_forces: # hartree/bohr
- [  4.43673942E-07,  -3.59919979E-05,  -4.99769618E-04, ]
- [  1.17792878E-06,   6.96893144E-06,   3.74516902E-04, ]
- [ -1.62160272E-06,   2.90230665E-05,   1.25252716E-04, ]
force_length_stats: {min:   1.28581534E-04, max:   5.01064159E-04, mean:   3.34743093E-04, }
...

 Integrated electronic density in atomic spheres:
 ------------------------------------------------
 Atom  Sphere_radius  Integrated_density
    1        2.00000         10.51663665
    2        2.00000          3.93680332
    3        2.00000          3.93630895
 
---OUTPUT-----------------------------------------------------------------------
 
 Cartesian coordinates (xcart) [bohr]
  2.97631686613967E+00  1.74473042160375E+00  8.57049394403825E-04
  2.97630979292321E+00 -1.73146634944480E+00 -2.98479299573741E+00
  2.97632931882179E+00 -1.73164245128815E+00  2.98393594634301E+00
 Reduced coordinates (xred)
  3.30777129896555E-01  6.69222267629239E-01  2.26765503077183E-05
  6.67934588162514E-01  3.32062432864907E-01 -7.89742212851654E-02
  6.67954948607598E-01  3.32048632839188E-01  7.89515447348576E-02
 Cartesian forces (fcart) [Ha/bohr]; max,rms= 4.99770E-04 2.12893E-04 (free atoms)
  4.43673941773172E-07 -3.59919979309548E-05 -4.99769617993769E-04
  1.17792877967075E-06  6.96893144413008E-06  3.74516902025920E-04
 -1.62160272144392E-06  2.90230664868247E-05  1.25252715967849E-04
 Gradient of E wrt nuclear positions in reduced coordinates (gred)
 -1.86864128230189E-04  1.84223098167105E-04  1.88885541509020E-02
  3.24198919514258E-05 -3.94316747639349E-05 -1.41546875393151E-02
  1.54444236278764E-04 -1.44791423403170E-04 -4.73386661158693E-03
 Total energy (etotal) [Ha]= -9.23799520711133E+01
 
 Difference of energy with previous step (new-old):
           Absolute (Ha)=-3.00478E-05
           Relative     =-3.25264E-07
 
 At Broyd/MD step   6, gradients are converged : 
  max grad (force/stress) = 4.9977E-04 < tolmxf= 5.0000E-04 ha/bohr (free atoms)
 
================================================================================
 
 ----iterations are completed or convergence reached----
 
 Mean square residual over all n,k,spin=   19.273E-10; max=  11.224E-08
 reduced coordinates (array xred) for    3 atoms
       0.330777129897      0.669222267629      0.000022676550
       0.667934588163      0.332062432865     -0.078974221285
       0.667954948608      0.332048632839      0.078951544735
 rms dE/dt=  8.0264E-03; max dE/dt=  1.8661E-02; dE/dt below (all hartree)
    1      -0.000183419557      0.000179880810      0.018661328526
    2       0.000035864463     -0.000043773962     -0.014381913164
    3       0.000157888808     -0.000149133711     -0.004961092236
 
 cartesian coordinates (angstrom) at end:
    1      1.57499905110313     0.92327157424633     0.00045353100615
    2      1.57499530811819    -0.91625252956672    -1.57948442570331
    3      1.57500564077869    -0.91634571864861     1.57903089469715
 
 cartesian forces (hartree/bohr) at end:
    1      0.00000044367394    -0.00003599199793    -0.00049976961799
    2      0.00000117792878     0.00000696893144     0.00037451690203
    3     -0.00000162160272     0.00002902306649     0.00012525271597
 frms,max,avg= 2.1289313E-04 4.9976962E-04   1.508E-07  7.553E-07  6.012E-06 h/b
 
 cartesian forces (eV/Angstrom) at end:
    1      0.00002281462947    -0.00185078279202    -0.02569918487803
    2      0.00006057152814     0.00035835683310     0.01925843180253
    3     -0.00008338615761     0.00149242595892     0.00644075307550
 frms,max,avg= 1.0947404E-02 2.5699185E-02   7.755E-06  3.884E-05  3.092E-04 e/A
 length scales=  5.952637318590  5.952637318590 37.794522657713 bohr
              =  3.150000000000  3.150000000000 20.000000000000 angstroms
 prteigrs : about to open file mos2_ecut2o_DS11_EIG
 Fermi (or HOMO) energy (hartree) =  -0.07380   Average Vxc (hartree)=  -0.14416
 Eigenvalues (hartree) for nkpt=   5  k points:
 kpt#   1, nband= 14, wtk=  0.22222, kpt=  0.1667  0.1667  0.5000 (reduced coord)
  -2.29784   -1.34720   -1.34609   -1.34416   -0.53983   -0.51658   -0.24227   -0.19991
  -0.19611   -0.17814   -0.13020   -0.09923   -0.09251    0.00876
 prteigrs : prtvol=0 or 1, do not print more k-points.
 

--- !EnergyTerms
iteration_state     : {dtset: 11, itime: 6, icycle: 1, }
comment             : Components of total free energy in Hartree
kinetic             :  2.99824182238637E+01
hartree             :  2.83679898797511E+02
xc                  : -1.66145875263179E+01
Ewald energy        :  2.07434677506997E+02
psp_core            :  7.63117176066322E-01
local_psp           : -6.09240697763241E+02
non_local_psp       :  1.16152215140067E+01
total_energy        : -9.23799520711133E+01
total_energy_eV     : -2.51378633677547E+03
band_energy         : -1.70909119327515E+01
...

 rms coord change=  6.2949E-03   atom, delta coord (reduced):
     1       -0.002556203437      0.002555600963      0.000022676550
     2        0.001267921496     -0.001270900468      0.012970013715
     3        0.001288281941     -0.001284700494     -0.012992690265
 
 Cartesian components of stress tensor (hartree/bohr^3)
  sigma(1 1)= -3.21774121E-05  sigma(3 2)= -5.87457638E-08
  sigma(2 2)=  1.92494726E-05  sigma(3 1)=  5.02970700E-09
  sigma(3 3)=  2.10214517E-05  sigma(2 1)=  6.15243809E-10
 
-Cartesian components of stress tensor (GPa)         [Pressure= -7.9373E-02 GPa]
- sigma(1 1)= -9.46691988E-01  sigma(3 2)= -1.72835975E-03
- sigma(2 2)=  5.66338943E-01  sigma(3 1)=  1.47979064E-04
- sigma(3 3)=  6.18472358E-01  sigma(2 1)=  1.81010947E-05
 
================================================================================
== DATASET 21 ==================================================================
-   mpi_nproc: 1, omp_nthreads: -1 (-1 if OMP is not activated)
 

--- !DatasetInfo
iteration_state: {dtset: 21, }
dimensions: {natom: 3, nkpt: 5, mband: 14, nsppol: 1, nspinor: 1, nspden: 1, mpw: 11496, }
cutoff_energies: {ecut:  35.0, pawecutdg:  -1.0, }
electrons: {nelect:   2.60000000E+01, charge:   0.00000000E+00, occopt:   1.00000000E+00, tsmear:   1.00000000E-02, }
meta: {optdriver: 0, ionmov: 2, optcell: 0, iscf: 7, paral_kgb: 0, }
...

 Exchange-correlation functional for the present dataset will be:
  GGA: Perdew-Burke-Ernzerhof functional - ixc=11
 Citation for XC functional:
  J.P.Perdew, K.Burke, M.Ernzerhof, PRL 77, 3865 (1996)
 
 Real(R)+Recip(G) space primitive vectors, cartesian coordinates (Bohr,Bohr^-1):
 R(1)=  2.9763187 -5.1551351  0.0000000  G(1)=  0.1679928 -0.0969907  0.0000000
 R(2)=  2.9763187  5.1551351  0.0000000  G(2)=  0.1679928  0.0969907  0.0000000
 R(3)=  0.0000000  0.0000000 37.7945227  G(3)=  0.0000000  0.0000000  0.0264589
 Unit cell volume ucvol=  1.1597873E+03 bohr^3
 Angles (23,13,12)=  9.00000000E+01  9.00000000E+01  1.20000000E+02 degrees
 
 getcut: wavevector=  0.0000  0.0000  0.0000  ngfft=  32  32 216
         ecut(hartree)=     35.000   => boxcut(ratio)=   2.01856
 
--- Pseudopotential description ------------------------------------------------
- pspini: atom type   1  psp file is ./persudo/Mo.psp8
- pspatm: opening atomic psp file    ./persudo/Mo.psp8
- Mo    ONCVPSP-3.2.3.1  r_core=   1.45541   1.45541   1.35488
- 42.00000  14.00000    170510                znucl, zion, pspdat
    8   11    2    4       600   0.00000      pspcod,pspxc,lmax,lloc,mmax,r2well
    5.99000000000000    3.00000000000000    0.00000000000000   rchrg,fchrg,qchrg
     nproj     2     2     2
     extension_switch     1
  pspatm : epsatm=   15.95693586
         --- l  ekb(1:nproj) -->
             0   13.833287    1.350687
             1    8.015347    1.134034
             2    2.765699    0.969071
 pspatm: atomic psp has been read  and splines computed
 
- pspini: atom type   2  psp file is ./persudo/S.psp8
- pspatm: opening atomic psp file    ./persudo/S.psp8
- S     ONCVPSP-4.0.1  r_core=   1.45687   1.45687   1.45687
- 16.00000   6.00000    220131                znucl, zion, pspdat
    8   11    2    4       600   0.00000      pspcod,pspxc,lmax,lloc,mmax,r2well
    5.99000000000000    6.00000000000000    0.00000000000000   rchrg,fchrg,qchrg
     nproj     2     2     2
     extension_switch     1
  pspatm : epsatm=    9.04179351
         --- l  ekb(1:nproj) -->
             0    6.774234    0.542270
             1    3.022426    0.737017
             2   -5.033160   -1.531047
 pspatm: atomic psp has been read  and splines computed
 
--------------------------------------------------------------------------------
 
_setup2: Arith. and geom. avg. npw (full set) are   11467.111   11467.069
 
================================================================================
 
=== [ionmov= 2] Broyden-Fletcher-Goldfard-Shanno method (forces)            
================================================================================
 
--- Iteration: ( 1/10) Internal Cycle: (1/1)
--------------------------------------------------------------------------------
 
---SELF-CONSISTENT-FIELD CONVERGENCE--------------------------------------------

--- !BeginCycle
iteration_state: {dtset: 21, itime: 1, icycle: 1, }
solver: {iscf: 7, nstep: 10, nline: 4, wfoptalg: 0, }
tolerances: {toldff: 5.00E-05, }
...
 
     iter   Etot(hartree)      deltaE(h)  residm     vres2    diffor    maxfor
 ETOT  1  -91.554168270297    -9.155E+01 1.091E-01 1.118E+04 6.905E-02 6.905E-02
 ETOT  2  -86.730838817642     4.823E+00 4.986E-02 1.139E+05 1.008E+00 9.462E-01
 ETOT  3  -92.253784644491    -5.523E+00 1.892E-02 1.988E+03 8.201E-01 1.260E-01
 ETOT  4  -92.332404227496    -7.862E-02 1.192E-02 6.081E+02 2.753E-02 9.959E-02
 ETOT  5  -92.338405661837    -6.001E-03 6.000E-04 4.169E+02 3.736E-03 9.585E-02
 ETOT  6  -92.340475810525    -2.070E-03 4.768E-04 3.025E+02 7.606E-03 8.856E-02
 ETOT  7  -92.343182930720    -2.707E-03 1.295E-04 1.602E+02 9.447E-03 7.911E-02
 ETOT  8  -92.344859554109    -1.677E-03 1.344E-04 8.126E+01 7.011E-03 7.210E-02
 ETOT  9  -92.345544063235    -6.845E-04 4.470E-05 3.613E+01 3.653E-03 6.863E-02
 ETOT 10  -92.345569680706    -2.562E-05 4.181E-05 2.052E+01 3.228E-03 6.541E-02
 
 Cartesian components of stress tensor (hartree/bohr^3)
  sigma(1 1)=  7.39572215E-05  sigma(3 2)= -3.47358104E-07
  sigma(2 2)=  1.10528916E-04  sigma(3 1)= -1.11148492E-07
  sigma(3 3)=  4.03840032E-04  sigma(2 1)=  2.67974694E-07
 
 
 scprqt:  WARNING -
  nstep=   10 was not enough SCF cycles to converge;
  maximum force difference=  3.228E-03 exceeds toldff=  5.000E-05
 

--- !ResultsGS
iteration_state: {dtset: 21, itime: 1, icycle: 1, }
comment   : Summary of ground state results
lattice_vectors:
- [  2.9763187,  -5.1551351,   0.0000000, ]
- [  2.9763187,   5.1551351,   0.0000000, ]
- [  0.0000000,   0.0000000,  37.7945227, ]
lattice_lengths: [   5.95264,    5.95264,   37.79452, ]
lattice_angles: [ 90.000,  90.000, 120.000, ] # degrees, (23, 13, 12)
lattice_volume:   1.1597873E+03
convergence: {deltae: -2.562E-05, res2:  2.052E+01, residm:  4.181E-05, diffor:  3.228E-03, }
etotal    :  -9.23455697E+01
entropy   :   0.00000000E+00
fermie    :  -7.63396284E-02
cartesian_stress_tensor: # hartree/bohr^3
- [  7.39572215E-05,   2.67974694E-07,  -1.11148492E-07, ]
- [  2.67974694E-07,   1.10528916E-04,  -3.47358104E-07, ]
- [ -1.11148492E-07,  -3.47358104E-07,   4.03840032E-04, ]
pressure_GPa:  -5.7697E+00
xred      :
- [  3.3333E-01,   6.6667E-01,   0.0000E+00, Mo]
- [  6.6667E-01,   3.3333E-01,  -9.1944E-02,  S]
- [  6.6667E-01,   3.3333E-01,   9.1944E-02,  S]
cartesian_forces: # hartree/bohr
- [ -1.75450196E-06,   7.95965339E-03,  -1.02901826E-04, ]
- [ -2.54418059E-05,  -3.99652339E-03,   6.54058022E-02, ]
- [  2.71963078E-05,  -3.96313000E-03,  -6.53029004E-02, ]
force_length_stats: {min:   7.96031871E-03, max:   6.55277942E-02, mean:   4.63037222E-02, }
...

 Integrated electronic density in atomic spheres:
 ------------------------------------------------
 Atom  Sphere_radius  Integrated_density
    1        2.00000         10.38273429
    2        2.00000          3.81916573
    3        2.00000          3.81960593
 
---OUTPUT-----------------------------------------------------------------------
 
 Cartesian coordinates (xcart) [bohr]
  2.97631865929489E+00  1.71837837912920E+00  0.00000000000000E+00
  2.97631865929489E+00 -1.71837837912920E+00 -3.47498847295358E+00
  2.97631865929489E+00 -1.71837837912920E+00  3.47498847295358E+00
 Reduced coordinates (xred)
  3.33333333333333E-01  6.66666666666667E-01  0.00000000000000E+00
  6.66666666666667E-01  3.33333333333333E-01 -9.19442350000000E-02
  6.66666666666667E-01  3.33333333333333E-01  9.19442350000000E-02
 Cartesian forces (fcart) [Ha/bohr]; max,rms= 6.54058E-02 3.09793E-02 (free atoms)
 -1.75450195721300E-06  7.95965339126550E-03 -1.02901826471496E-04
 -2.54418058575642E-05 -3.99652339046918E-03  6.54058022125538E-02
  2.71963078147772E-05 -3.96313000079632E-03 -6.53029003860823E-02
 Gradient of E wrt nuclear positions in reduced coordinates (gred)
  4.10383108356522E-02 -4.10278669218262E-02  3.88912541209699E-03
 -2.05268952360991E-02  2.06783410790992E-02 -2.47198107366825E+00
 -2.05114155995531E-02  2.03495258427270E-02  2.46809194825615E+00
 Total energy (etotal) [Ha]= -9.23455696807059E+01
 
--- Iteration: ( 2/10) Internal Cycle: (1/1)
--------------------------------------------------------------------------------
 
---SELF-CONSISTENT-FIELD CONVERGENCE--------------------------------------------

--- !BeginCycle
iteration_state: {dtset: 21, itime: 2, icycle: 1, }
solver: {iscf: 7, nstep: 10, nline: 4, wfoptalg: 0, }
tolerances: {toldff: 5.00E-05, }
...
 
     iter   Etot(hartree)      deltaE(h)  residm     vres2    diffor    maxfor
 ETOT  1  -92.324348006469    -9.232E+01 6.423E-05 1.046E+03 4.805E-02 1.134E-01
 ETOT  2  -92.250645233740     7.370E-02 5.182E-05 1.906E+03 1.265E-01 1.311E-02
 ETOT  3  -92.264721762071    -1.408E-02 1.345E-03 1.927E+03 1.512E-01 1.386E-01
 ETOT  4  -92.353731323390    -8.901E-02 3.057E-04 6.559E+00 7.956E-02 5.976E-02
 ETOT  5  -92.353884688136    -1.534E-04 4.763E-05 5.390E+00 1.636E-03 6.109E-02
 ETOT  6  -92.353919754749    -3.507E-05 3.901E-06 4.332E+00 1.143E-03 5.995E-02
 ETOT  7  -92.353936590306    -1.684E-05 8.193E-07 5.685E+00 1.301E-03 6.115E-02
 ETOT  8  -92.353915957677     2.063E-05 4.536E-07 6.121E+00 5.135E-04 6.154E-02
 ETOT  9  -92.353929005143    -1.305E-05 1.680E-07 4.755E+00 3.254E-04 6.123E-02
 ETOT 10  -92.353948865987    -1.986E-05 9.511E-08 2.716E+00 8.395E-04 6.039E-02
 
 Cartesian components of stress tensor (hartree/bohr^3)
  sigma(1 1)=  5.38140168E-05  sigma(3 2)= -4.36498496E-09
  sigma(2 2)=  9.28859291E-05  sigma(3 1)=  8.79162476E-09
  sigma(3 3)=  3.50304344E-04  sigma(2 1)= -2.71082837E-09
 
 
 scprqt:  WARNING -
  nstep=   10 was not enough SCF cycles to converge;
  maximum force difference=  8.395E-04 exceeds toldff=  5.000E-05
 

--- !ResultsGS
iteration_state: {dtset: 21, itime: 2, icycle: 1, }
comment   : Summary of ground state results
lattice_vectors:
- [  2.9763187,  -5.1551351,   0.0000000, ]
- [  2.9763187,   5.1551351,   0.0000000, ]
- [  0.0000000,   0.0000000,  37.7945227, ]
lattice_lengths: [   5.95264,    5.95264,   37.79452, ]
lattice_angles: [ 90.000,  90.000, 120.000, ] # degrees, (23, 13, 12)
lattice_volume:   1.1597873E+03
convergence: {deltae: -1.986E-05, res2:  2.716E+00, residm:  9.511E-08, diffor:  8.395E-04, }
etotal    :  -9.23539489E+01
entropy   :   0.00000000E+00
fermie    :  -7.03390904E-02
cartesian_stress_tensor: # hartree/bohr^3
- [  5.38140168E-05,  -2.71082837E-09,   8.79162476E-09, ]
- [ -2.71082837E-09,   9.28859291E-05,  -4.36498496E-09, ]
- [  8.79162476E-09,  -4.36498496E-09,   3.50304344E-04, ]
pressure_GPa:  -4.8741E+00
xred      :
- [  3.3256E-01,   6.6744E-01,  -2.7227E-06, Mo]
- [  6.6705E-01,   3.3294E-01,  -9.0214E-02,  S]
- [  6.6706E-01,   3.3295E-01,   9.0216E-02,  S]
cartesian_forces: # hartree/bohr
- [  1.60495354E-07,   6.77105657E-03,  -1.89101619E-06, ]
- [ -5.10126172E-07,  -3.38752467E-03,   6.03905168E-02, ]
- [  3.49630818E-07,  -3.38353190E-03,  -6.03886258E-02, ]
force_length_stats: {min:   6.77105684E-03, max:   6.04854515E-02, mean:   4.25799494E-02, }
...

 Integrated electronic density in atomic spheres:
 ------------------------------------------------
 Atom  Sphere_radius  Integrated_density
    1        2.00000         10.40782048
    2        2.00000          3.81678183
    3        2.00000          3.81690271
 
---OUTPUT-----------------------------------------------------------------------
 
 Cartesian coordinates (xcart) [bohr]
  2.97631690479293E+00  1.72633803252047E+00 -1.02901826471492E-04
  2.97629321748903E+00 -1.72237490251967E+00 -3.40958267074102E+00
  2.97634585560270E+00 -1.72234150913000E+00  3.40968557256749E+00
 Reduced coordinates (xred)
  3.32561026491167E-01  6.67438384021565E-01 -2.72266506454984E-06
  6.67050018100213E-01  3.32941433821180E-01 -9.02136720079786E-02
  6.67055622075287E-01  3.32953515490588E-01  9.02163946730431E-02
 Cartesian forces (fcart) [Ha/bohr]; max,rms= 6.03905E-02 2.86018E-02 (free atoms)
  1.60495353861724E-07  6.77105657226751E-03 -1.89101618810794E-06
 -5.10126172358448E-07 -3.38752467008831E-03  6.03905168069285E-02
  3.49630818496724E-07 -3.38353190217920E-03 -6.03886257907404E-02
 Gradient of E wrt nuclear positions in reduced coordinates (gred)
  3.49052339676191E-02 -3.49061893382520E-02  7.14700541675472E-05
 -1.74616291574942E-02  1.74646657535850E-02 -2.28243075577045E+00
 -1.74436048101249E-02  1.74415235846669E-02  2.28235928571628E+00
 Total energy (etotal) [Ha]= -9.23539488659872E+01
 
 Difference of energy with previous step (new-old):
           Absolute (Ha)=-8.37919E-03
           Relative     =-9.07332E-05
 
--- Iteration: ( 3/10) Internal Cycle: (1/1)
--------------------------------------------------------------------------------
 
---SELF-CONSISTENT-FIELD CONVERGENCE--------------------------------------------

--- !BeginCycle
iteration_state: {dtset: 21, itime: 3, icycle: 1, }
solver: {iscf: 7, nstep: 10, nline: 4, wfoptalg: 0, }
tolerances: {toldff: 5.00E-05, }
...
 
     iter   Etot(hartree)      deltaE(h)  residm     vres2    diffor    maxfor
 ETOT  1  -91.349122576455    -9.135E+01 7.265E-03 2.992E+04 2.932E-01 3.536E-01
 ETOT  2  -91.762143803567    -4.130E-01 4.919E-03 4.683E+03 5.431E-01 1.895E-01
 ETOT  3  -92.280889513100    -5.187E-01 8.230E-03 2.851E+03 1.250E-01 6.463E-02
 ETOT  4  -92.346572926037    -6.568E-02 1.422E-03 9.511E+02 2.029E-02 6.787E-02
 ETOT  5  -92.348326184408    -1.753E-03 9.143E-04 7.736E+02 5.992E-03 7.386E-02
 ETOT  6  -92.349434160542    -1.108E-03 7.571E-04 6.001E+02 7.320E-03 8.117E-02
 ETOT  7  -92.350125718440    -6.916E-04 4.826E-04 4.435E+02 4.425E-03 8.560E-02
 ETOT  8  -92.350535554844    -4.098E-04 3.225E-04 2.984E+02 2.330E-03 8.792E-02
 ETOT  9  -92.350622600934    -8.705E-05 3.040E-04 2.310E+02 3.106E-04 8.819E-02
 ETOT 10  -92.350651572749    -2.897E-05 1.754E-04 1.841E+02 6.691E-04 8.885E-02
 
 Cartesian components of stress tensor (hartree/bohr^3)
  sigma(1 1)= -2.49839809E-04  sigma(3 2)=  3.76643138E-08
  sigma(2 2)= -1.31161881E-04  sigma(3 1)=  2.56199295E-08
  sigma(3 3)= -4.36292045E-04  sigma(2 1)=  1.23317792E-08
 
 
 scprqt:  WARNING -
  nstep=   10 was not enough SCF cycles to converge;
  maximum force difference=  6.691E-04 exceeds toldff=  5.000E-05
 

--- !ResultsGS
iteration_state: {dtset: 21, itime: 3, icycle: 1, }
comment   : Summary of ground state results
lattice_vectors:
- [  2.9763187,  -5.1551351,   0.0000000, ]
- [  2.9763187,   5.1551351,   0.0000000, ]
- [  0.0000000,   0.0000000,  37.7945227, ]
lattice_lengths: [   5.95264,    5.95264,   37.79452, ]
lattice_angles: [ 90.000,  90.000, 120.000, ] # degrees, (23, 13, 12)
lattice_volume:   1.1597873E+03
convergence: {deltae: -2.897E-05, res2:  1.841E+02, residm:  1.754E-04, diffor:  6.691E-04, }
etotal    :  -9.23506516E+01
entropy   :   0.00000000E+00
fermie    :  -8.91174178E-02
cartesian_stress_tensor: # hartree/bohr^3
- [ -2.49839809E-04,   1.23317792E-08,   2.56199295E-08, ]
- [  1.23317792E-08,  -1.31161881E-04,   3.76643138E-08, ]
- [  2.56199295E-08,   3.76643138E-08,  -4.36292045E-04, ]
pressure_GPa:   8.0152E+00
xred      :
- [  3.2400E-01,   6.7600E-01,  -3.4022E-06, Mo]
- [  6.7133E-01,   3.2866E-01,  -6.9384E-02,  S]
- [  6.7133E-01,   3.2868E-01,   6.9387E-02,  S]
cartesian_forces: # hartree/bohr
- [  1.03941596E-05,  -3.37214892E-02,   8.93025333E-05, ]
- [  3.55548708E-06,   1.68704206E-02,  -8.88491226E-02, ]
- [ -1.39496467E-05,   1.68510686E-02,   8.87598201E-02, ]
force_length_stats: {min:   3.37216090E-02, max:   9.04365949E-02, mean:   7.15011516E-02, }
...

 Integrated electronic density in atomic spheres:
 ------------------------------------------------
 Atom  Sphere_radius  Integrated_density
    1        2.00000         10.66684071
    2        2.00000          4.07088764
    3        2.00000          4.07029035
 
---OUTPUT-----------------------------------------------------------------------
 
 Cartesian coordinates (xcart) [bohr]
  2.97631897729562E+00  1.81461160996297E+00 -1.28583737291864E-04
  2.97628631314258E+00 -1.76653786454968E+00 -2.62233471650618E+00
  2.97635068744646E+00 -1.76645212454250E+00  2.62246330024347E+00
 Reduced coordinates (xred)
  3.23999661424093E-01  6.76000445419552E-01 -3.40217915850893E-06
  6.71332253402927E-01  3.28656878757970E-01 -6.93839882634695E-02
  6.71334751839647E-01  3.28676009155811E-01  6.93873904426279E-02
 Cartesian forces (fcart) [Ha/bohr]; max,rms= 8.88491E-02 4.40684E-02 (free atoms)
  1.03941596366220E-05 -3.37214891935965E-02  8.93025332846661E-05
  3.55548707786299E-06  1.68704205535209E-02 -8.88491226301679E-02
 -1.39496467144850E-05  1.68510686400756E-02  8.87598200968833E-02
 Gradient of E wrt nuclear positions in reduced coordinates (gred)
 -1.73869770158220E-01  1.73807897495672E-01 -3.37514661761847E-03
  8.69587155154292E-02 -8.69798800404947E-02  3.35801017836379E+00
  8.69110546427908E-02 -8.68280174551771E-02 -3.35463503174617E+00
 Total energy (etotal) [Ha]= -9.23506515727488E+01
 
 Difference of energy with previous step (new-old):
           Absolute (Ha)= 3.29729E-03
           Relative     = 3.57034E-05
 
--- Iteration: ( 4/10) Internal Cycle: (1/1)
--------------------------------------------------------------------------------
 
---SELF-CONSISTENT-FIELD CONVERGENCE--------------------------------------------

--- !BeginCycle
iteration_state: {dtset: 21, itime: 4, icycle: 1, }
solver: {iscf: 7, nstep: 10, nline: 4, wfoptalg: 0, }
tolerances: {toldff: 5.00E-05, }
...
 
     iter   Etot(hartree)      deltaE(h)  residm     vres2    diffor    maxfor
 ETOT  1  -91.747748444093    -9.175E+01 1.053E-02 2.430E+04 2.439E-01 3.327E-01
 ETOT  2  -91.874811271945    -1.271E-01 3.312E-03 5.827E+03 5.300E-01 1.974E-01
 ETOT  3  -92.180970091515    -3.062E-01 6.965E-03 5.934E+03 2.852E-01 8.788E-02
 ETOT  4  -92.369020388504    -1.881E-01 8.320E-04 1.038E+03 8.021E-02 7.672E-03
 ETOT  5  -92.379369042282    -1.035E-02 3.229E-04 3.658E+02 1.910E-02 1.144E-02
 ETOT  6  -92.379825019813    -4.560E-04 1.710E-04 2.867E+02 2.330E-03 1.377E-02
 ETOT  7  -92.380099436657    -2.744E-04 1.027E-04 2.163E+02 1.678E-03 1.544E-02
 ETOT  8  -92.380185015472    -8.558E-05 2.159E-04 1.815E+02 4.736E-04 1.591E-02
 ETOT  9  -92.380265824082    -8.081E-05 1.522E-04 1.447E+02 8.712E-04 1.678E-02
 ETOT 10  -92.380307301726    -4.148E-05 3.386E-04 1.193E+02 5.794E-04 1.736E-02
 
 Cartesian components of stress tensor (hartree/bohr^3)
  sigma(1 1)= -1.64828981E-05  sigma(3 2)=  1.13227973E-08
  sigma(2 2)=  3.20420620E-05  sigma(3 1)=  1.29732547E-08
  sigma(3 3)=  1.27662148E-04  sigma(2 1)=  4.15363455E-08
 
 
 scprqt:  WARNING -
  nstep=   10 was not enough SCF cycles to converge;
  maximum force difference=  5.794E-04 exceeds toldff=  5.000E-05
 

--- !ResultsGS
iteration_state: {dtset: 21, itime: 4, icycle: 1, }
comment   : Summary of ground state results
lattice_vectors:
- [  2.9763187,  -5.1551351,   0.0000000, ]
- [  2.9763187,   5.1551351,   0.0000000, ]
- [  0.0000000,   0.0000000,  37.7945227, ]
lattice_lengths: [   5.95264,    5.95264,   37.79452, ]
lattice_angles: [ 90.000,  90.000, 120.000, ] # degrees, (23, 13, 12)
lattice_volume:   1.1597873E+03
convergence: {deltae: -4.148E-05, res2:  1.193E+02, residm:  3.386E-04, diffor:  5.794E-04, }
etotal    :  -9.23803073E+01
entropy   :   0.00000000E+00
fermie    :  -4.94356223E-02
cartesian_stress_tensor: # hartree/bohr^3
- [ -1.64828981E-05,   4.15363455E-08,   1.29732547E-08, ]
- [  4.15363455E-08,   3.20420620E-05,   1.13227973E-08, ]
- [  1.29732547E-08,   1.13227973E-08,   1.27662148E-04, ]
pressure_GPa:  -1.4046E+00
xred      :
- [  3.3004E-01,   6.6996E-01,  -2.1143E-06, Mo]
- [  6.6831E-01,   3.3168E-01,  -8.1843E-02,  S]
- [  6.6831E-01,   3.3169E-01,   8.1845E-02,  S]
cartesian_forces: # hartree/bohr
- [  1.30178016E-05,  -4.63815880E-04,   3.04660441E-05, ]
- [ -5.39842798E-06,   2.34217799E-04,   1.73308665E-02, ]
- [ -7.61937363E-06,   2.29598082E-04,  -1.73613325E-02, ]
force_length_stats: {min:   4.64997649E-04, max:   1.73628523E-02, mean:   1.17201000E-02, }
...

 Integrated electronic density in atomic spheres:
 ------------------------------------------------
 Atom  Sphere_radius  Integrated_density
    1        2.00000         10.47252129
    2        2.00000          3.89704981
    3        2.00000          3.89701221
 
---OUTPUT-----------------------------------------------------------------------
 
 Cartesian coordinates (xcart) [bohr]
  2.97632196020576E+00  1.75232704612317E+00 -7.99100254015126E-05
  2.97629125492649E+00 -1.73537741524622E+00 -3.09322898326988E+00
  2.97634276275242E+00 -1.73532801000616E+00  3.09330889329528E+00
 Reduced coordinates (xred)
  3.30041183977009E-01  6.69959925081276E-01 -2.11432820901642E-06
  6.68310810797405E-01  3.31679981731374E-01 -8.18433139448219E-02
  6.68314671892253E-01  3.31693426520682E-01  8.18454282730308E-02
 Cartesian forces (fcart) [Ha/bohr]; max,rms= 1.73613E-02 8.17923E-03 (free atoms)
  1.30178016050237E-05 -4.63815880429929E-04  3.04660440593834E-05
 -5.39842797845590E-06  2.34217798673481E-04  1.73308664798212E-02
 -7.61937362656776E-06  2.29598081756448E-04 -1.73613325238806E-02
 Gradient of E wrt nuclear positions in reduced coordinates (gred)
 -2.42977866830273E-03  2.35228841666267E-03 -1.15144959249324E-03
  1.22349184566638E-03 -1.19135696182010E-03 -6.55011825849399E-01
  1.20628682263635E-03 -1.16093145484257E-03  6.56163275441892E-01
 Total energy (etotal) [Ha]= -9.23803073017257E+01
 
 Difference of energy with previous step (new-old):
           Absolute (Ha)=-2.96557E-02
           Relative     =-3.21069E-04
 
--- Iteration: ( 5/10) Internal Cycle: (1/1)
--------------------------------------------------------------------------------
 
---SELF-CONSISTENT-FIELD CONVERGENCE--------------------------------------------

--- !BeginCycle
iteration_state: {dtset: 21, itime: 5, icycle: 1, }
solver: {iscf: 7, nstep: 10, nline: 4, wfoptalg: 0, }
tolerances: {toldff: 5.00E-05, }
...
 
     iter   Etot(hartree)      deltaE(h)  residm     vres2    diffor    maxfor
 ETOT  1  -92.359285716072    -9.236E+01 7.324E-04 1.010E+03 4.999E-02 6.735E-02
 ETOT  2  -92.354511400180     4.774E-03 3.801E-04 3.113E+02 9.555E-02 2.820E-02
 ETOT  3  -92.331419619663     2.309E-02 1.747E-03 1.006E+03 8.437E-02 5.617E-02
 ETOT  4  -92.382153508626    -5.073E-02 1.162E-03 2.803E+01 4.765E-02 8.523E-03
 ETOT  5  -92.382259832692    -1.063E-04 8.255E-04 2.243E+01 1.112E-03 8.955E-03
 ETOT  6  -92.382290119371    -3.029E-05 3.911E-04 1.802E+01 1.228E-03 7.727E-03
 ETOT  7  -92.382303642426    -1.352E-05 5.265E-04 1.440E+01 9.655E-05 7.631E-03
 ETOT  8  -92.382315947275    -1.230E-05 2.267E-04 1.151E+01 4.354E-04 7.196E-03
 ETOT  9  -92.382321241096    -5.294E-06 2.907E-04 9.763E+00 1.983E-04 6.998E-03
 ETOT 10  -92.382325807446    -4.566E-06 1.320E-04 7.374E+00 2.527E-04 6.745E-03
 
 Cartesian components of stress tensor (hartree/bohr^3)
  sigma(1 1)= -3.82127520E-05  sigma(3 2)=  1.16434345E-08
  sigma(2 2)=  1.47077099E-05  sigma(3 1)=  1.24076202E-08
  sigma(3 3)=  3.00687023E-05  sigma(2 1)=  1.59999749E-08
 
 
 scprqt:  WARNING -
  nstep=   10 was not enough SCF cycles to converge;
  maximum force difference=  2.527E-04 exceeds toldff=  5.000E-05
 

--- !ResultsGS
iteration_state: {dtset: 21, itime: 5, icycle: 1, }
comment   : Summary of ground state results
lattice_vectors:
- [  2.9763187,  -5.1551351,   0.0000000, ]
- [  2.9763187,   5.1551351,   0.0000000, ]
- [  0.0000000,   0.0000000,  37.7945227, ]
lattice_lengths: [   5.95264,    5.95264,   37.79452, ]
lattice_angles: [ 90.000,  90.000, 120.000, ] # degrees, (23, 13, 12)
lattice_volume:   1.1597873E+03
convergence: {deltae: -4.566E-06, res2:  7.374E+00, residm:  1.320E-04, diffor:  2.527E-04, }
etotal    :  -9.23823258E+01
entropy   :   0.00000000E+00
fermie    :  -8.04139530E-02
cartesian_stress_tensor: # hartree/bohr^3
- [ -3.82127520E-05,   1.59999749E-08,   1.24076202E-08, ]
- [  1.59999749E-08,   1.47077099E-05,   1.16434345E-08, ]
- [  1.24076202E-08,   1.16434345E-08,   3.00687023E-05, ]
pressure_GPa:  -6.4370E-02
xred      :
- [  3.2964E-01,   6.7037E-01,  -1.2848E-06, Mo]
- [  6.6851E-01,   3.3148E-01,  -7.9839E-02,  S]
- [  6.6852E-01,   3.3149E-01,   7.9841E-02,  S]
cartesian_forces: # hartree/bohr
- [ -3.75751916E-08,  -2.71370924E-03,   2.34410986E-05, ]
- [  1.99734861E-06,   1.35917696E-03,   6.72169294E-03, ]
- [ -1.95977342E-06,   1.35453228E-03,  -6.74513404E-03, ]
force_length_stats: {min:   2.71381048E-03, max:   6.87979613E-03, mean:   5.48378036E-03, }
...

 Integrated electronic density in atomic spheres:
 ------------------------------------------------
 Atom  Sphere_radius  Integrated_density
    1        2.00000         10.49520060
    2        2.00000          3.92038857
    3        2.00000          3.92036121
 
---OUTPUT-----------------------------------------------------------------------
 
 Cartesian coordinates (xcart) [bohr]
  2.97633408764678E+00  1.75652242268219E+00 -4.85589898006043E-05
  2.97628629732595E+00 -1.73747463119039E+00 -3.01748958750047E+00
  2.97633559291193E+00 -1.73742617062101E+00  3.01753814649027E+00
 Reduced coordinates (xred)
  3.29636308924877E-01  6.70368874778101E-01 -1.28481553373170E-06
  6.68513388331504E-01  3.31475738515235E-01 -7.98393358431446E-02
  6.68516969410286E-01  3.31488720039997E-01  7.98406206586783E-02
 Cartesian forces (fcart) [Ha/bohr]; max,rms= 6.74513E-03 3.36196E-03 (free atoms)
 -3.75751915777846E-08 -2.71370924053848E-03  2.34410985929927E-05
  1.99734860963671E-06  1.35917695915041E-03  6.72169294219809E-03
 -1.95977341805893E-06  1.35453228138807E-03 -6.74513404079108E-03
 Gradient of E wrt nuclear positions in reduced coordinates (gred)
 -1.39894260228095E-02  1.39896496942972E-02 -8.85945131894542E-04
  7.00079615410796E-03 -7.01268564597992E-03 -2.54043176202094E-01
  6.98862986870158E-03 -6.97696404831726E-03  2.54929121333989E-01
 Total energy (etotal) [Ha]= -9.23823258074464E+01
 
 Difference of energy with previous step (new-old):
           Absolute (Ha)=-2.01851E-03
           Relative     =-2.18497E-05
 
--- Iteration: ( 6/10) Internal Cycle: (1/1)
--------------------------------------------------------------------------------
 
---SELF-CONSISTENT-FIELD CONVERGENCE--------------------------------------------

--- !BeginCycle
iteration_state: {dtset: 21, itime: 6, icycle: 1, }
solver: {iscf: 7, nstep: 10, nline: 4, wfoptalg: 0, }
tolerances: {toldff: 5.00E-05, }
...
 
     iter   Etot(hartree)      deltaE(h)  residm     vres2    diffor    maxfor
 ETOT  1  -92.377630039084    -9.238E+01 1.956E-04 2.824E+02 2.150E-02 2.824E-02
 ETOT  2  -92.377502397325     1.276E-04 7.182E-05 5.449E+01 4.563E-02 1.739E-02
 ETOT  3  -92.368310722604     9.192E-03 1.771E-04 2.627E+02 4.029E-02 2.291E-02
 ETOT  4  -92.382465153974    -1.415E-02 9.620E-05 5.513E+00 2.428E-02 3.557E-03
 ETOT  5  -92.382488618154    -2.346E-05 5.080E-05 4.647E+00 4.531E-04 3.104E-03
 ETOT  6  -92.382495456744    -6.839E-06 2.221E-05 3.819E+00 6.210E-04 3.086E-03
 ETOT  7  -92.382498365413    -2.909E-06 2.362E-05 3.095E+00 1.489E-04 3.062E-03
 ETOT  8  -92.382502605856    -4.240E-06 1.140E-05 2.289E+00 2.800E-04 3.052E-03
 ETOT  9  -92.382505763909    -3.158E-06 1.344E-05 1.476E+00 2.559E-04 3.041E-03
 ETOT 10  -92.382506411219    -6.473E-07 6.217E-06 1.051E+00 6.444E-05 3.043E-03
 
 Cartesian components of stress tensor (hartree/bohr^3)
  sigma(1 1)= -5.55375024E-05  sigma(3 2)=  9.74841271E-09
  sigma(2 2)= -6.32389032E-07  sigma(3 1)=  1.15645535E-08
  sigma(3 3)= -1.26469530E-05  sigma(2 1)=  4.24606396E-11
 
 
 scprqt:  WARNING -
  nstep=   10 was not enough SCF cycles to converge;
  maximum force difference=  6.444E-05 exceeds toldff=  5.000E-05
 

--- !ResultsGS
iteration_state: {dtset: 21, itime: 6, icycle: 1, }
comment   : Summary of ground state results
lattice_vectors:
- [  2.9763187,  -5.1551351,   0.0000000, ]
- [  2.9763187,   5.1551351,   0.0000000, ]
- [  0.0000000,   0.0000000,  37.7945227, ]
lattice_lengths: [   5.95264,    5.95264,   37.79452, ]
lattice_angles: [ 90.000,  90.000, 120.000, ] # degrees, (23, 13, 12)
lattice_volume:   1.1597873E+03
convergence: {deltae: -6.473E-07, res2:  1.051E+00, residm:  6.217E-06, diffor:  6.444E-05, }
etotal    :  -9.23825064E+01
entropy   :   0.00000000E+00
fermie    :  -7.51313699E-02
cartesian_stress_tensor: # hartree/bohr^3
- [ -5.55375024E-05,   4.24606396E-11,   1.15645535E-08, ]
- [  4.24606396E-11,  -6.32389032E-07,   9.74841271E-09, ]
- [  1.15645535E-08,   9.74841271E-09,  -1.26469530E-05, ]
pressure_GPa:   6.7489E-01
xred      :
- [  3.2978E-01,   6.7022E-01,  -2.7259E-07, Mo]
- [  6.6844E-01,   3.3155E-01,  -7.8583E-02,  S]
- [  6.6844E-01,   3.3156E-01,   7.8583E-02,  S]
cartesian_forces: # hartree/bohr
- [ -4.58639147E-06,  -3.04312253E-03,   5.74061448E-06, ]
- [  4.40275553E-06,   1.52357964E-03,  -2.58249598E-03, ]
- [  1.83635943E-07,   1.51954289E-03,   2.57675536E-03, ]
force_length_stats: {min:   2.99143424E-03, max:   3.04313140E-03, mean:   3.01099951E-03, }
...

 Integrated electronic density in atomic spheres:
 ------------------------------------------------
 Atom  Sphere_radius  Integrated_density
    1        2.00000         10.50604485
    2        2.00000          3.94448747
    3        2.00000          3.94448149
 
---OUTPUT-----------------------------------------------------------------------
 
 Cartesian coordinates (xcart) [bohr]
  2.97633360243130E+00  1.75503961224520E+00 -1.03024677077502E-05
  2.97628960967742E+00 -1.73673066768610E+00 -2.97001330051188E+00
  2.97633276577594E+00 -1.73668732368831E+00  2.97002360297959E+00
 Reduced coordinates (xred)
  3.29780046186813E-01  6.70224974490783E-01 -2.72591555158795E-07
  6.68441787265423E-01  3.31548452483478E-01 -7.85831673920025E-02
  6.68444833214429E-01  3.31559906359072E-01  7.85834399835576E-02
 Cartesian forces (fcart) [Ha/bohr]; max,rms= 3.04312E-03 1.73845E-03 (free atoms)
 -4.58639147152107E-06 -3.04312252612295E-03  5.74061447924114E-06
  4.40275552863386E-06  1.52357964004308E-03 -2.58249597914380E-03
  1.83635942887208E-07  1.51954288607987E-03  2.57675536466456E-03
 Gradient of E wrt nuclear positions in reduced coordinates (gred)
 -1.56740572992767E-02  1.57013584243077E-02 -2.16963784004874E-04
  7.84115493356227E-03 -7.86736294042664E-03  9.76042027972026E-02
  7.83290236571439E-03 -7.83399548388106E-03 -9.73872390131977E-02
 Total energy (etotal) [Ha]= -9.23825064112190E+01
 
 Difference of energy with previous step (new-old):
           Absolute (Ha)=-1.80604E-04
           Relative     =-1.95496E-06
 
--- Iteration: ( 7/10) Internal Cycle: (1/1)
--------------------------------------------------------------------------------
 
---SELF-CONSISTENT-FIELD CONVERGENCE--------------------------------------------

--- !BeginCycle
iteration_state: {dtset: 21, itime: 7, icycle: 1, }
solver: {iscf: 7, nstep: 10, nline: 4, wfoptalg: 0, }
tolerances: {toldff: 5.00E-05, }
...
 
     iter   Etot(hartree)      deltaE(h)  residm     vres2    diffor    maxfor
 ETOT  1  -92.382003766745    -9.238E+01 1.153E-05 5.706E+01 8.279E-03 1.086E-02
 ETOT  2  -92.382014681963    -1.092E-05 6.752E-06 6.266E+00 1.559E-02 4.736E-03
 ETOT  3  -92.380785815160     1.229E-03 1.960E-05 3.183E+01 1.426E-02 9.526E-03
 ETOT  4  -92.382548815093    -1.763E-03 1.087E-05 4.766E-01 8.658E-03 1.990E-03
 ETOT  5  -92.382553790685    -4.976E-06 3.684E-06 2.911E-01 2.205E-04 2.136E-03
 ETOT  6  -92.382554655941    -8.653E-07 2.547E-07 2.015E-01 2.430E-04 2.133E-03
 ETOT  7  -92.382554773872    -1.179E-07 8.972E-07 1.813E-01 1.221E-05 2.143E-03
 ETOT  8  -92.382554864748    -9.088E-08 7.787E-08 1.563E-01 2.048E-05 2.135E-03
 
 At SCF step    8, forces are converged : 
  for the second time, max diff in force=  2.048E-05 < toldff=  5.000E-05
 
 Cartesian components of stress tensor (hartree/bohr^3)
  sigma(1 1)= -5.09844506E-05  sigma(3 2)=  9.07406716E-09
  sigma(2 2)=  2.62274247E-06  sigma(3 1)=  1.06592062E-08
  sigma(3 3)=  3.04210346E-06  sigma(2 1)= -1.84064088E-09
 

--- !ResultsGS
iteration_state: {dtset: 21, itime: 7, icycle: 1, }
comment   : Summary of ground state results
lattice_vectors:
- [  2.9763187,  -5.1551351,   0.0000000, ]
- [  2.9763187,   5.1551351,   0.0000000, ]
- [  0.0000000,   0.0000000,  37.7945227, ]
lattice_lengths: [   5.95264,    5.95264,   37.79452, ]
lattice_angles: [ 90.000,  90.000, 120.000, ] # degrees, (23, 13, 12)
lattice_volume:   1.1597873E+03
convergence: {deltae: -9.088E-08, res2:  1.563E-01, residm:  7.787E-08, diffor:  2.048E-05, }
etotal    :  -9.23825549E+01
entropy   :   0.00000000E+00
fermie    :  -7.24535649E-02
cartesian_stress_tensor: # hartree/bohr^3
- [ -5.09844506E-05,  -1.84064088E-09,   1.06592062E-08, ]
- [ -1.84064088E-09,   2.62274247E-06,   9.07406716E-09, ]
- [  1.06592062E-08,   9.07406716E-09,   3.04210346E-06, ]
pressure_GPa:   4.4445E-01
xred      :
- [  3.3003E-01,   6.6997E-01,  -2.6230E-07, Mo]
- [  6.6832E-01,   3.3168E-01,  -7.8920E-02,  S]
- [  6.6832E-01,   3.3169E-01,   7.8920E-02,  S]
cartesian_forces: # hartree/bohr
- [ -3.76566857E-06,  -2.13535299E-03,   4.50728248E-06, ]
- [  3.78257211E-06,   1.06944713E-03,  -3.74513161E-04, ]
- [ -1.69035404E-08,   1.06590585E-03,   3.70005879E-04, ]
force_length_stats: {min:   1.12829944E-03, max:   2.13536106E-03, mean:   1.46559801E-03, }
...

 Integrated electronic density in atomic spheres:
 ------------------------------------------------
 Atom  Sphere_radius  Integrated_density
    1        2.00000         10.50580411
    2        2.00000          3.94005996
    3        2.00000          3.94005441
 
---OUTPUT-----------------------------------------------------------------------
 
 Cartesian coordinates (xcart) [bohr]
  2.97633046925627E+00  1.75243935875453E+00 -9.91362066131298E-06
  2.97629235876305E+00 -1.73542913162652E+00 -2.98273689362474E+00
  2.97633314986534E+00 -1.73538860625722E+00  2.98274680724540E+00
 Reduced coordinates (xred)
  3.30031720158802E-01  6.69972247817324E-01 -2.62303105428688E-07
  6.68316012240227E-01  3.31675151161663E-01 -7.89198191663374E-02
  6.68318934267638E-01  3.31685934354345E-01  7.89200814694428E-02
 Cartesian forces (fcart) [Ha/bohr]; max,rms= 2.13535E-03 8.89246E-04 (free atoms)
 -3.76566857055660E-06 -2.13535298523165E-03  4.50728248432826E-06
  3.78257211100533E-06  1.06944713370903E-03 -3.74513161356126E-04
 -1.69035404487307E-08  1.06590585152262E-03  3.70005878871798E-04
 Gradient of E wrt nuclear positions in reduced coordinates (gred)
 -1.09968253752619E-02  1.10192410345245E-02 -1.70350589978657E-04
  5.50188635660777E-03 -5.52440263651600E-03  1.41545461624858E-02
  5.49493901865418E-03 -5.49483839800848E-03 -1.39841955725071E-02
 Total energy (etotal) [Ha]= -9.23825548647477E+01
 
 Difference of energy with previous step (new-old):
           Absolute (Ha)=-4.84535E-05
           Relative     =-5.24488E-07
 
--- Iteration: ( 8/10) Internal Cycle: (1/1)
--------------------------------------------------------------------------------
 
---SELF-CONSISTENT-FIELD CONVERGENCE--------------------------------------------

--- !BeginCycle
iteration_state: {dtset: 21, itime: 8, icycle: 1, }
solver: {iscf: 7, nstep: 10, nline: 4, wfoptalg: 0, }
tolerances: {toldff: 5.00E-05, }
...
 
     iter   Etot(hartree)      deltaE(h)  residm     vres2    diffor    maxfor
 ETOT  1  -92.382549392719    -9.238E+01 1.772E-07 1.043E+01 1.114E-03 2.919E-03
 ETOT  2  -92.382561735286    -1.234E-05 2.322E-07 6.478E-03 2.156E-03 1.030E-03
 ETOT  3  -92.382561944811    -2.095E-07 4.885E-08 9.695E-03 4.845E-04 1.417E-03
 ETOT  4  -92.382562151602    -2.068E-07 6.093E-08 1.735E-03 2.447E-04 1.286E-03
 ETOT  5  -92.382562223072    -7.147E-08 2.030E-08 1.489E-03 9.647E-05 1.300E-03
 ETOT  6  -92.382562268409    -4.534E-08 3.014E-08 3.569E-04 5.221E-05 1.305E-03
 ETOT  7  -92.382562268539    -1.303E-10 9.366E-09 2.510E-04 3.038E-06 1.302E-03
 ETOT  8  -92.382562268736    -1.969E-10 1.360E-08 2.075E-04 2.282E-06 1.304E-03
 
 At SCF step    8, forces are converged : 
  for the second time, max diff in force=  2.282E-06 < toldff=  5.000E-05
 
 Cartesian components of stress tensor (hartree/bohr^3)
  sigma(1 1)= -4.95954791E-05  sigma(3 2)=  7.86888269E-09
  sigma(2 2)=  3.20645423E-06  sigma(3 1)=  9.32603871E-09
  sigma(3 3)=  4.91081617E-06  sigma(2 1)= -1.33216135E-09
 

--- !ResultsGS
iteration_state: {dtset: 21, itime: 8, icycle: 1, }
comment   : Summary of ground state results
lattice_vectors:
- [  2.9763187,  -5.1551351,   0.0000000, ]
- [  2.9763187,   5.1551351,   0.0000000, ]
- [  0.0000000,   0.0000000,  37.7945227, ]
lattice_lengths: [   5.95264,    5.95264,   37.79452, ]
lattice_angles: [ 90.000,  90.000, 120.000, ] # degrees, (23, 13, 12)
lattice_volume:   1.1597873E+03
convergence: {deltae: -1.969E-10, res2:  2.075E-04, residm:  1.360E-08, diffor:  2.282E-06, }
etotal    :  -9.23825623E+01
entropy   :   0.00000000E+00
fermie    :  -7.34689417E-02
cartesian_stress_tensor: # hartree/bohr^3
- [ -4.95954791E-05,  -1.33216135E-09,   9.32603871E-09, ]
- [ -1.33216135E-09,   3.20645423E-06,   7.86888269E-09, ]
- [  9.32603871E-09,   7.86888269E-09,   4.91081617E-06, ]
pressure_GPa:   4.0678E-01
xred      :
- [  3.3032E-01,   6.6969E-01,  -1.2641E-07, Mo]
- [  6.6817E-01,   3.3182E-01,  -7.9003E-02,  S]
- [  6.6818E-01,   3.3183E-01,   7.9003E-02,  S]
cartesian_forces: # hartree/bohr
- [ -2.30647885E-06,  -1.30439027E-03,   2.79575196E-06, ]
- [  2.95848689E-06,   6.53725235E-04,   3.84600883E-04, ]
- [ -6.52008046E-07,   6.50665033E-04,  -3.87396635E-04, ]
force_length_stats: {min:   7.57259244E-04, max:   1.30439530E-03, mean:   9.40042952E-04, }
...

 Integrated electronic density in atomic spheres:
 ------------------------------------------------
 Atom  Sphere_radius  Integrated_density
    1        2.00000         10.50695204
    2        2.00000          3.93961359
    3        2.00000          3.93961054
 
---OUTPUT-----------------------------------------------------------------------
 
 Cartesian coordinates (xcart) [bohr]
  2.97632563566627E+00  1.74948934511651E+00 -4.77748290858853E-06
  2.97629713646239E+00 -1.73395181134108E+00 -2.98586187402702E+00
  2.97633320575600E+00 -1.73391591290464E+00  2.98586665150993E+00
 Reduced coordinates (xred)
  3.30317031943668E-01  6.69685312016163E-01 -1.26406753482666E-07
  6.68173528577986E-01  3.31819240061745E-01 -7.90025025866462E-02
  6.68176106145012E-01  3.31828781255424E-01  7.90026289933996E-02
 Cartesian forces (fcart) [Ha/bohr]; max,rms= 1.30439E-03 5.62748E-04 (free atoms)
 -2.30647884537227E-06 -1.30439026844720E-03  2.79575196229872E-06
  2.95848689129615E-06  6.53725235442102E-04  3.84600883137473E-04
 -6.52008045923883E-07  6.50665033005099E-04 -3.87396635099772E-04
 Gradient of E wrt nuclear positions in reduced coordinates (gred)
 -6.71744328971387E-03  6.73117292176337E-03 -1.05664110884444E-04
  3.36123653168672E-03 -3.37884733116241E-03 -1.45358067919156E-02
  3.35620675802715E-03 -3.35232559060096E-03  1.46414709028000E-02
 Total energy (etotal) [Ha]= -9.23825622687362E+01
 
 Difference of energy with previous step (new-old):
           Absolute (Ha)=-7.40399E-06
           Relative     =-8.01449E-08
 
--- Iteration: ( 9/10) Internal Cycle: (1/1)
--------------------------------------------------------------------------------
 
---SELF-CONSISTENT-FIELD CONVERGENCE--------------------------------------------

--- !BeginCycle
iteration_state: {dtset: 21, itime: 9, icycle: 1, }
solver: {iscf: 7, nstep: 10, nline: 4, wfoptalg: 0, }
tolerances: {toldff: 5.00E-05, }
...
 
     iter   Etot(hartree)      deltaE(h)  residm     vres2    diffor    maxfor
 ETOT  1  -92.382553510877    -9.238E+01 8.202E-08 5.037E+00 7.922E-04 2.097E-03
 ETOT  2  -92.382535218971     1.829E-05 1.100E-07 4.358E-01 1.975E-03 7.431E-04
 ETOT  3  -92.382459548129     7.567E-05 1.168E-06 1.706E+00 3.070E-03 2.327E-03
 ETOT  4  -92.382566820151    -1.073E-04 6.061E-07 4.790E-03 2.054E-03 4.870E-04
 ETOT  5  -92.382566988589    -1.684E-07 1.012E-08 2.741E-03 6.321E-05 4.351E-04
 ETOT  6  -92.382567000425    -1.184E-08 2.278E-09 1.552E-03 4.677E-05 3.883E-04
 ETOT  7  -92.382567003096    -2.672E-09 8.472E-10 1.531E-03 9.437E-06 3.978E-04
 
 At SCF step    7, forces are converged : 
  for the second time, max diff in force=  9.437E-06 < toldff=  5.000E-05
 
 Cartesian components of stress tensor (hartree/bohr^3)
  sigma(1 1)= -4.94832277E-05  sigma(3 2)=  6.22100282E-09
  sigma(2 2)=  2.55577959E-06  sigma(3 1)=  7.40394447E-09
  sigma(3 3)=  4.45379597E-06  sigma(2 1)= -3.12713294E-10
 

--- !ResultsGS
iteration_state: {dtset: 21, itime: 9, icycle: 1, }
comment   : Summary of ground state results
lattice_vectors:
- [  2.9763187,  -5.1551351,   0.0000000, ]
- [  2.9763187,   5.1551351,   0.0000000, ]
- [  0.0000000,   0.0000000,  37.7945227, ]
lattice_lengths: [   5.95264,    5.95264,   37.79452, ]
lattice_angles: [ 90.000,  90.000, 120.000, ] # degrees, (23, 13, 12)
lattice_volume:   1.1597873E+03
convergence: {deltae: -2.672E-09, res2:  1.531E-03, residm:  8.472E-10, diffor:  9.437E-06, }
etotal    :  -9.23825670E+01
entropy   :   0.00000000E+00
fermie    :  -7.36224424E-02
cartesian_stress_tensor: # hartree/bohr^3
- [ -4.94832277E-05,  -3.12713294E-10,   7.40394447E-09, ]
- [ -3.12713294E-10,   2.55577959E-06,   6.22100282E-09, ]
- [  7.40394447E-09,   6.22100282E-09,   4.45379597E-06, ]
pressure_GPa:   4.1654E-01
xred      :
- [  3.3065E-01,   6.6935E-01,   7.0121E-08, Mo]
- [  6.6801E-01,   3.3199E-01,  -7.8987E-02,  S]
- [  6.6801E-01,   3.3199E-01,   7.8987E-02,  S]
cartesian_forces: # hartree/bohr
- [ -4.06475842E-07,  -3.97786361E-04,  -7.09098739E-07, ]
- [  1.62091219E-06,   2.00100244E-04,   3.15646302E-04, ]
- [ -1.21443635E-06,   1.97686117E-04,  -3.14937203E-04, ]
force_length_stats: {min:   3.71842329E-04, max:   3.97787201E-04, mean:   3.81120383E-04, }
...

 Integrated electronic density in atomic spheres:
 ------------------------------------------------
 Atom  Sphere_radius  Integrated_density
    1        2.00000         10.51017701
    2        2.00000          3.93841003
    3        2.00000          3.93841133
 
---OUTPUT-----------------------------------------------------------------------
 
 Cartesian coordinates (xcart) [bohr]
  2.97631990978758E+00  1.74608883595275E+00  2.65017248145875E-06
  2.97630374926255E+00 -1.73224820997167E+00 -2.98528724566640E+00
  2.97633231883453E+00 -1.73221900511028E+00  2.98528459549391E+00
 Reduced coordinates (xred)
  3.30645887692411E-01  6.69354532455037E-01  7.01205438010187E-08
  6.68009406045942E-01  3.31985584398951E-01 -7.89872985750536E-02
  6.68011372928313E-01  3.31993216479345E-01  7.89872284545098E-02
 Cartesian forces (fcart) [Ha/bohr]; max,rms= 3.97786E-04 2.20146E-04 (free atoms)
 -4.06475842304023E-07 -3.97786360818543E-04 -7.09098739313862E-07
  1.62091218880695E-06  2.00100244282784E-04  3.15646301865900E-04
 -1.21443634650293E-06  1.97686116535759E-04 -3.14937203126586E-04
 Gradient of E wrt nuclear positions in reduced coordinates (gred)
 -2.04943264419522E-03  2.05185224746322E-03  2.68000483695534E-05
  1.02671944910940E-03 -1.03636815149465E-03 -1.19297013076940E-02
  1.02271319508582E-03 -1.01548409596857E-03  1.19029012593245E-02
 Total energy (etotal) [Ha]= -9.23825670030963E+01
 
 Difference of energy with previous step (new-old):
           Absolute (Ha)=-4.73436E-06
           Relative     =-5.12473E-08
 
 At Broyd/MD step   9, gradients are converged : 
  max grad (force/stress) = 3.9779E-04 < tolmxf= 5.0000E-04 ha/bohr (free atoms)
 
================================================================================
 
 ----iterations are completed or convergence reached----
 
 Mean square residual over all n,k,spin=   43.854E-12; max=  84.720E-11
 reduced coordinates (array xred) for    3 atoms
       0.330645887692      0.669354532455      0.000000070121
       0.668009406046      0.331985584399     -0.078987298575
       0.668011372928      0.331993216479      0.078987228455
 rms dE/dt=  5.7408E-03; max dE/dt=  1.1904E-02; dE/dt below (all hartree)
    1      -0.002053566919      0.002056035268      0.000027767503
    2       0.001022585174     -0.001032185131     -0.011928733853
    3       0.001018578920     -0.001011301076      0.011903868714
 
 cartesian coordinates (angstrom) at end:
    1      1.57500066173223     0.92399041615964     0.00000140241088
    2      1.57499210995071    -0.91666627233784    -1.57974597150107
    3      1.57500722831706    -0.91665081779080     1.57974456909020
 
 cartesian forces (hartree/bohr) at end:
    1     -0.00000040647584    -0.00039778636082    -0.00000070909874
    2      0.00000162091219     0.00020010024428     0.00031564630187
    3     -0.00000121443635     0.00019768611654    -0.00031493720313
 frms,max,avg= 2.2014558E-04 3.9778636E-04  -8.189E-09 -8.067E-07 -2.560E-08 h/b
 
 cartesian forces (eV/Angstrom) at end:
    1     -0.00002090182645    -0.02045499538302    -0.00003646332018
    2      0.00008335064900     0.01028956740629     0.01623118408094
    3     -0.00006244882255     0.01016542797673    -0.01619472076076
 frms,max,avg= 1.1320340E-02 2.0454995E-02  -4.211E-07 -4.148E-05 -1.316E-06 e/A
 length scales=  5.952637318590  5.952637318590 37.794522657713 bohr
              =  3.150000000000  3.150000000000 20.000000000000 angstroms
 prteigrs : about to open file mos2_ecut2o_DS21_EIG
 Fermi (or HOMO) energy (hartree) =  -0.07362   Average Vxc (hartree)=  -0.14380
 Eigenvalues (hartree) for nkpt=   5  k points:
 kpt#   1, nband= 14, wtk=  0.22222, kpt=  0.1667  0.1667  0.5000 (reduced coord)
  -2.29744   -1.34715   -1.34603   -1.34408   -0.53961   -0.51643   -0.24202   -0.19967
  -0.19588   -0.17792   -0.13000   -0.09908   -0.09240    0.00892
 prteigrs : prtvol=0 or 1, do not print more k-points.
 

--- !EnergyTerms
iteration_state     : {dtset: 21, itime: 9, icycle: 1, }
comment             : Components of total free energy in Hartree
kinetic             :  2.99894583075095E+01
hartree             :  2.83649440502577E+02
xc                  : -1.66144689485815E+01
Ewald energy        :  2.07400974116139E+02
psp_core            :  7.63117176066322E-01
local_psp           : -6.09184912639549E+02
non_local_psp       :  1.16138244827433E+01
total_energy        : -9.23825670030963E+01
total_energy_eV     : -2.51385749269342E+03
band_energy         : -1.70862637544869E+01
...

 rms coord change=  6.3020E-03   atom, delta coord (reduced):
     1       -0.002687445641      0.002687865788      0.000000070121
     2        0.001342739379     -0.001347748934      0.012956936425
     3        0.001344706262     -0.001340116854     -0.012957006545
 
 Cartesian components of stress tensor (hartree/bohr^3)
  sigma(1 1)= -4.94832277E-05  sigma(3 2)=  6.22100282E-09
  sigma(2 2)=  2.55577959E-06  sigma(3 1)=  7.40394447E-09
  sigma(3 3)=  4.45379597E-06  sigma(2 1)= -3.12713294E-10
 
-Cartesian components of stress tensor (GPa)         [Pressure=  4.1654E-01 GPa]
- sigma(1 1)= -1.45584658E+00  sigma(3 2)=  1.83028191E-04
- sigma(2 2)=  7.51936190E-02  sigma(3 1)=  2.17831530E-04
- sigma(3 3)=  1.31035179E-01  sigma(2 1)= -9.20034120E-06
 
== END DATASET(S) ==============================================================
================================================================================
  
 -outvars: echo values of variables after computation  --------
            acell      5.9526373186E+00  5.9526373186E+00  3.7794522658E+01 Bohr
              amu      9.59400000E+01  3.20660000E+01
      chksymbreak           0
             ecut11    3.00000000E+01 Hartree
             ecut21    3.50000000E+01 Hartree
           etotal11   -9.2379952071E+01
           etotal21   -9.2382567003E+01
            fcart11    4.4367394177E-07 -3.5991997931E-05 -4.9976961799E-04
                       1.1779287797E-06  6.9689314441E-06  3.7451690203E-04
                      -1.6216027214E-06  2.9023066487E-05  1.2525271597E-04
            fcart21   -4.0647584230E-07 -3.9778636082E-04 -7.0909873931E-07
                       1.6209121888E-06  2.0010024428E-04  3.1564630187E-04
                      -1.2144363465E-06  1.9768611654E-04 -3.1493720313E-04
-          fftalg         512
           ionmov           2
           istwfk        0    0    0    0    9
              ixc          11
           jdtset       11   21
              kpt      1.66666667E-01  1.66666667E-01  5.00000000E-01
                       5.00000000E-01  1.66666667E-01  5.00000000E-01
                      -1.66666667E-01  1.66666667E-01  5.00000000E-01
                       1.66666667E-01  5.00000000E-01  5.00000000E-01
                       5.00000000E-01  5.00000000E-01  5.00000000E-01
         kptrlatt        3    0    0      0    3    0      0    0    1
          kptrlen      1.78579120E+01
P           mkmem           5
            natom           3
            nband          14
           ndtset           2
            ngfft11        30      30     192
            ngfft21        32      32     216
             nkpt           5
            nstep          10
             nsym           1
            ntime          10
           ntypat           2
              occ      2.000000  2.000000  2.000000  2.000000  2.000000  2.000000
                       2.000000  2.000000  2.000000  2.000000  2.000000  2.000000
                       2.000000  0.000000
        optforces           1
            rprim      5.0000000000E-01 -8.6602540378E-01  0.0000000000E+00
                       5.0000000000E-01  8.6602540378E-01  0.0000000000E+00
                       0.0000000000E+00  0.0000000000E+00  1.0000000000E+00
           shiftk      5.00000000E-01  5.00000000E-01  5.00000000E-01
          spgroup           1
           strten11   -3.2177412076E-05  1.9249472650E-05  2.1021451701E-05
                      -5.8745763804E-08  5.0297069989E-09  6.1524380893E-10
           strten21   -4.9483227660E-05  2.5557795931E-06  4.4537959747E-06
                       6.2210028211E-09  7.4039444684E-09 -3.1271329386E-10
           toldff      5.00000000E-05
           tolmxf      5.00000000E-04
            typat      1  2  2
              wtk        0.22222    0.22222    0.22222    0.22222    0.11111
           xangst11    1.5749990511E+00  9.2327157425E-01  4.5353100615E-04
                       1.5749953081E+00 -9.1625252957E-01 -1.5794844257E+00
                       1.5750056408E+00 -9.1634571865E-01  1.5790308947E+00
           xangst21    1.5750006617E+00  9.2399041616E-01  1.4024108760E-06
                       1.5749921100E+00 -9.1666627234E-01 -1.5797459715E+00
                       1.5750072283E+00 -9.1665081779E-01  1.5797445691E+00
            xcart11    2.9763168661E+00  1.7447304216E+00  8.5704939440E-04
                       2.9763097929E+00 -1.7314663494E+00 -2.9847929957E+00
                       2.9763293188E+00 -1.7316424513E+00  2.9839359463E+00
            xcart21    2.9763199098E+00  1.7460888360E+00  2.6501724815E-06
                       2.9763037493E+00 -1.7322482100E+00 -2.9852872457E+00
                       2.9763323188E+00 -1.7322190051E+00  2.9852845955E+00
             xred11    3.3077712990E-01  6.6922226763E-01  2.2676550308E-05
                       6.6793458816E-01  3.3206243286E-01 -7.8974221285E-02
                       6.6795494861E-01  3.3204863284E-01  7.8951544735E-02
             xred21    3.3064588769E-01  6.6935453246E-01  7.0120543801E-08
                       6.6800940605E-01  3.3198558440E-01 -7.8987298575E-02
                       6.6801137293E-01  3.3199321648E-01  7.8987228455E-02
            znucl       42.00000   16.00000
 
================================================================================


- Timing analysis has been suppressed with timopt=0



================================================================================

 Suggested references for the acknowledgment of ABINIT usage.

 The users of ABINIT have little formal obligations with respect to the ABINIT group
 (those specified in the GNU General Public License, http://www.gnu.org/copyleft/gpl.txt).
 However, it is common practice in the scientific literature,
 to acknowledge the efforts of people that have made the research possible.
 In this spirit, please find below suggested citations of work written by ABINIT developers,
 corresponding to implementations inside of ABINIT that you have used in the present run.
 Note also that it will be of great value to readers of publications presenting these results,
 to read papers enabling them to understand the theoretical formalism and details
 of the ABINIT implementation.
 For information on why they are suggested, see also https://docs.abinit.org/theory/acknowledgments.
-
- [1] The Abinit project: Impact, environment and recent developments.
- Computer Phys. Comm. 248, 107042 (2020).
- X.Gonze, B. Amadon, G. Antonius, F.Arnardi, L.Baguet, J.-M.Beuken,
- J.Bieder, F.Bottin, J.Bouchet, E.Bousquet, N.Brouwer, F.Bruneval,
- G.Brunin, T.Cavignac, J.-B. Charraud, Wei Chen, M.Cote, S.Cottenier,
- J.Denier, G.Geneste, Ph.Ghosez, M.Giantomassi, Y.Gillet, O.Gingras,
- D.R.Hamann, G.Hautier, Xu He, N.Helbig, N.Holzwarth, Y.Jia, F.Jollet,
- W.Lafargue-Dit-Hauret, K.Lejaeghere, M.A.L.Marques, A.Martin, C.Martins,
- H.P.C. Miranda, F.Naccarato, K. Persson, G.Petretto, V.Planes, Y.Pouillon,
- S.Prokhorenko, F.Ricci, G.-M.Rignanese, A.H.Romero, M.M.Schmitt, M.Torrent,
- M.J.van Setten, B.Van Troeye, M.J.Verstraete, G.Zerah and J.W.Zwanzig
- Comment: the fifth generic paper describing the ABINIT project.
- Note that a version of this paper, that is not formatted for Computer Phys. Comm. 
- is available at https://www.abinit.org/sites/default/files/ABINIT20.pdf .
- The licence allows the authors to put it on the Web.
- DOI and bibtex: see https://docs.abinit.org/theory/bibliography/#gonze2020
-
- [2] Optimized norm-conserving Vanderbilt pseudopotentials.
- D.R. Hamann, Phys. Rev. B 88, 085117 (2013).
- Comment: Some pseudopotential generated using the ONCVPSP code were used.
- DOI and bibtex: see https://docs.abinit.org/theory/bibliography/#hamann2013
-
- [3] ABINIT: Overview, and focus on selected capabilities
- J. Chem. Phys. 152, 124102 (2020).
- A. Romero, D.C. Allan, B. Amadon, G. Antonius, T. Applencourt, L.Baguet,
- J.Bieder, F.Bottin, J.Bouchet, E.Bousquet, F.Bruneval,
- G.Brunin, D.Caliste, M.Cote,
- J.Denier, C. Dreyer, Ph.Ghosez, M.Giantomassi, Y.Gillet, O.Gingras,
- D.R.Hamann, G.Hautier, F.Jollet, G. Jomard,
- A.Martin, 
- H.P.C. Miranda, F.Naccarato, G.Petretto, N.A. Pike, V.Planes,
- S.Prokhorenko, T. Rangel, F.Ricci, G.-M.Rignanese, M.Royo, M.Stengel, M.Torrent,
- M.J.van Setten, B.Van Troeye, M.J.Verstraete, J.Wiktor, J.W.Zwanziger, and X.Gonze.
- Comment: a global overview of ABINIT, with focus on selected capabilities .
- Note that a version of this paper, that is not formatted for J. Chem. Phys 
- is available at https://www.abinit.org/sites/default/files/ABINIT20_JPC.pdf .
- The licence allows the authors to put it on the Web.
- DOI and bibtex: see https://docs.abinit.org/theory/bibliography/#romero2020
-
- [4] Recent developments in the ABINIT software package.
- Computer Phys. Comm. 205, 106 (2016).
- X.Gonze, F.Jollet, F.Abreu Araujo, D.Adams, B.Amadon, T.Applencourt,
- C.Audouze, J.-M.Beuken, J.Bieder, A.Bokhanchuk, E.Bousquet, F.Bruneval
- D.Caliste, M.Cote, F.Dahm, F.Da Pieve, M.Delaveau, M.Di Gennaro,
- B.Dorado, C.Espejo, G.Geneste, L.Genovese, A.Gerossier, M.Giantomassi,
- Y.Gillet, D.R.Hamann, L.He, G.Jomard, J.Laflamme Janssen, S.Le Roux,
- A.Levitt, A.Lherbier, F.Liu, I.Lukacevic, A.Martin, C.Martins,
- M.J.T.Oliveira, S.Ponce, Y.Pouillon, T.Rangel, G.-M.Rignanese,
- A.H.Romero, B.Rousseau, O.Rubel, A.A.Shukri, M.Stankovski, M.Torrent,
- M.J.Van Setten, B.Van Troeye, M.J.Verstraete, D.Waroquier, J.Wiktor,
- B.Xu, A.Zhou, J.W.Zwanziger.
- Comment: the fourth generic paper describing the ABINIT project.
- Note that a version of this paper, that is not formatted for Computer Phys. Comm. 
- is available at https://www.abinit.org/sites/default/files/ABINIT16.pdf .
- The licence allows the authors to put it on the Web.
- DOI and bibtex: see https://docs.abinit.org/theory/bibliography/#gonze2016
-
- And optionally:
-
- [5] ABINIT: First-principles approach of materials and nanosystem properties.
- Computer Phys. Comm. 180, 2582-2615 (2009).
- X. Gonze, B. Amadon, P.-M. Anglade, J.-M. Beuken, F. Bottin, P. Boulanger, F. Bruneval,
- D. Caliste, R. Caracas, M. Cote, T. Deutsch, L. Genovese, Ph. Ghosez, M. Giantomassi
- S. Goedecker, D.R. Hamann, P. Hermet, F. Jollet, G. Jomard, S. Leroux, M. Mancini, S. Mazevet,
- M.J.T. Oliveira, G. Onida, Y. Pouillon, T. Rangel, G.-M. Rignanese, D. Sangalli, R. Shaltaf,
- M. Torrent, M.J. Verstraete, G. Zerah, J.W. Zwanziger
- Comment: the third generic paper describing the ABINIT project.
- Note that a version of this paper, that is not formatted for Computer Phys. Comm. 
- is available at https://www.abinit.org/sites/default/files/ABINIT_CPC_v10.pdf .
- The licence allows the authors to put it on the Web.
- DOI and bibtex: see https://docs.abinit.org/theory/bibliography/#gonze2009
-
- Proc.   0 individual time (sec): cpu=        267.8  wall=        274.8
 
================================================================================
 
 Calculation completed.
.Delivered  13 WARNINGs and   6 COMMENTs to log file.
+Overall time at end (sec) : cpu=        267.8  wall=        274.8
