
.Version 9.10.3 of ABINIT 
.(MPI version, prepared for a x86_64_linux_intel2021.6 computer) 

.Copyright (C) 1998-2022 ABINIT group . 
 ABINIT comes with ABSOLUTELY NO WARRANTY.
 It is free software, and you are welcome to redistribute it
 under certain conditions (GNU General Public License,
 see ~abinit/COPYING or http://www.gnu.org/copyleft/gpl.txt).

 ABINIT is a project of the Universite Catholique de Louvain,
 Corning Inc. and other collaborators, see ~abinit/doc/developers/contributors.txt .
 Please read https://docs.abinit.org/theory/acknowledgments for suggested
 acknowledgments of the ABINIT effort.
 For more information, see https://www.abinit.org .

.Starting date : Wed  7 May 2025.
- ( at 08h47 )
  
- input  file    -> mos2.abi
- output file    -> mos2.abo
- root for input  files -> mos2i
- root for output files -> mos2o
 
 
 DATASET    1 : space group P1 (#  1); Bravais aP (primitive triclinic)
================================================================================
 Values of the parameters that define the memory need for DATASET  1.
     intxc =       0    ionmov =       0      iscf =       7    lmnmax =       6
     lnmax =       6     mgfft =     192  mpssoang =       3    mqgrid =    9319
     natom =       3  nloc_mem =       1    nspden =       1   nspinor =       1
    nsppol =       1      nsym =       1    n1xccc =    2501    ntypat =       2
    occopt =       1   xclevel =       2
-    mband =          14        mffmem =           1         mkmem =          10
       mpw =        9128          nfft =      172800          nkpt =          10
================================================================================
P This job should need less than                      75.052 Mbytes of memory.
  Rough estimation (10% accuracy) of disk space for files :
_ WF disk file :     19.502 Mbytes ; DEN or POT disk file :      1.320 Mbytes.
================================================================================
 
 
 DATASET    2 : space group P1 (#  1); Bravais aP (primitive triclinic)
================================================================================
 Values of the parameters that define the memory need for DATASET  2.
     intxc =       0    ionmov =       0      iscf =      -2    lmnmax =       6
     lnmax =       6     mgfft =     192  mpssoang =       3    mqgrid =    9319
     natom =       3  nloc_mem =       1    nspden =       1   nspinor =       1
    nsppol =       1      nsym =       1    n1xccc =    2501    ntypat =       2
    occopt =       1   xclevel =       2
-    mband =           8        mffmem =           1         mkmem =          68
       mpw =        9191          nfft =      172800          nkpt =          68
================================================================================
P This job should need less than                     116.944 Mbytes of memory.
  Rough estimation (10% accuracy) of disk space for files :
_ WF disk file :     76.294 Mbytes ; DEN or POT disk file :      1.320 Mbytes.
================================================================================
 
--------------------------------------------------------------------------------
------------- Echo of variables that govern the present computation ------------
--------------------------------------------------------------------------------
-
- outvars: echo of selected default values                                      
-   iomode0 =  0 , fftalg0 =512 , wfoptalg0 =  0
-
- outvars: echo of global parameters not present in the input file              
-  max_nthreads =    0
-
 -outvars: echo values of preprocessed input variables --------
            acell      5.9526373186E+00  5.9526373186E+00  3.7794522658E+01 Bohr
              amu      9.59400000E+01  3.20660000E+01
      chksymbreak           0
             ecut      3.00000000E+01 Hartree
           enunit1          0
           enunit2          1
-          fftalg         512
           getden1          0
           getden2         -1
             iscf1          7
             iscf2         -2
           istwfk1       4    0    5    0    0    0    0    8    0    9
           istwfk2       2    0    0    0    0    0    0    0    0    0
                         0    0    0    0    0    0    0    3    0    0
                         0    0    0    0    0    0    0    0    0    0
                         0    0    0    0    0    0    0    0    0    0
                         0    0    0    0    0    0    0    0    0    0
                       outvar_i_n : Printing only first  50 k-points.
              ixc          11
           jdtset        1    2
              kpt1     0.00000000E+00  0.00000000E+00  5.00000000E-01
                       2.50000000E-01  0.00000000E+00  5.00000000E-01
                       5.00000000E-01  0.00000000E+00  5.00000000E-01
                       0.00000000E+00  2.50000000E-01  5.00000000E-01
                       2.50000000E-01  2.50000000E-01  5.00000000E-01
                       5.00000000E-01  2.50000000E-01  5.00000000E-01
                      -2.50000000E-01  2.50000000E-01  5.00000000E-01
                       0.00000000E+00  5.00000000E-01  5.00000000E-01
                       2.50000000E-01  5.00000000E-01  5.00000000E-01
                       5.00000000E-01  5.00000000E-01  5.00000000E-01
              kpt2     0.00000000E+00  0.00000000E+00  0.00000000E+00
                       2.94117647E-02  0.00000000E+00  0.00000000E+00
                       5.88235294E-02  0.00000000E+00  0.00000000E+00
                       8.82352941E-02  0.00000000E+00  0.00000000E+00
                       1.17647059E-01  0.00000000E+00  0.00000000E+00
                       1.47058824E-01  0.00000000E+00  0.00000000E+00
                       1.76470588E-01  0.00000000E+00  0.00000000E+00
                       2.05882353E-01  0.00000000E+00  0.00000000E+00
                       2.35294118E-01  0.00000000E+00  0.00000000E+00
                       2.64705882E-01  0.00000000E+00  0.00000000E+00
                       2.94117647E-01  0.00000000E+00  0.00000000E+00
                       3.23529412E-01  0.00000000E+00  0.00000000E+00
                       3.52941176E-01  0.00000000E+00  0.00000000E+00
                       3.82352941E-01  0.00000000E+00  0.00000000E+00
                       4.11764706E-01  0.00000000E+00  0.00000000E+00
                       4.41176471E-01  0.00000000E+00  0.00000000E+00
                       4.70588235E-01  0.00000000E+00  0.00000000E+00
                       5.00000000E-01  0.00000000E+00  0.00000000E+00
                       4.83333333E-01  3.33333333E-02  0.00000000E+00
                       4.66666667E-01  6.66666667E-02  0.00000000E+00
                       4.50000000E-01  1.00000000E-01  0.00000000E+00
                       4.33333333E-01  1.33333333E-01  0.00000000E+00
                       4.16666667E-01  1.66666667E-01  0.00000000E+00
                       4.00000000E-01  2.00000000E-01  0.00000000E+00
                       3.83333333E-01  2.33333333E-01  0.00000000E+00
                       3.66666667E-01  2.66666667E-01  0.00000000E+00
                       3.50000000E-01  3.00000000E-01  0.00000000E+00
                       3.33333333E-01  3.33333333E-01  0.00000000E+00
                       3.50000000E-01  3.50000000E-01  2.50000000E-02
                       3.66666667E-01  3.66666667E-01  5.00000000E-02
                       3.83333333E-01  3.83333333E-01  7.50000000E-02
                       4.00000000E-01  4.00000000E-01  1.00000000E-01
                       4.16666667E-01  4.16666667E-01  1.25000000E-01
                       4.33333333E-01  4.33333333E-01  1.50000000E-01
                       4.50000000E-01  4.50000000E-01  1.75000000E-01
                       4.66666667E-01  4.66666667E-01  2.00000000E-01
                       4.83333333E-01  4.83333333E-01  2.25000000E-01
                       5.00000000E-01  5.00000000E-01  2.50000000E-01
                       5.16666667E-01  5.16666667E-01  2.75000000E-01
                       5.33333333E-01  5.33333333E-01  3.00000000E-01
                       5.50000000E-01  5.50000000E-01  3.25000000E-01
                       5.66666667E-01  5.66666667E-01  3.50000000E-01
                       5.83333333E-01  5.83333333E-01  3.75000000E-01
                       6.00000000E-01  6.00000000E-01  4.00000000E-01
                       6.16666667E-01  6.16666667E-01  4.25000000E-01
                       6.33333333E-01  6.33333333E-01  4.50000000E-01
                       6.50000000E-01  6.50000000E-01  4.75000000E-01
                       6.66666667E-01  6.66666667E-01  5.00000000E-01
                       6.83333333E-01  6.83333333E-01  5.25000000E-01
                       7.00000000E-01  7.00000000E-01  5.50000000E-01
                       outvar_i_n : Printing only first  50 k-points.
           kptopt1          1
           kptopt2         -3
         kptrlatt        4    0    0      0    4    0      0    0    1
          kptrlen1     2.38105493E+01
          kptrlen2     3.00000000E+01
P           mkmem1         10
P           mkmem2         68
            natom           3
            nband1         14
            nband2          8
           nbdbuf1          0
           nbdbuf2          2
           ndtset           2
           ndivsm1          0
           ndivsm2         10
            ngfft          30      30     192
             nkpt1         10
             nkpt2         68
            nstep          20
             nsym           1
           ntypat           2
              occ      2.000000  2.000000  2.000000  2.000000  2.000000  2.000000
                       2.000000  2.000000  2.000000  2.000000  2.000000  2.000000
                       2.000000  0.000000
            rprim      5.0000000000E-01 -8.6602540378E-01  0.0000000000E+00
                       5.0000000000E-01  8.6602540378E-01  0.0000000000E+00
                       0.0000000000E+00  0.0000000000E+00  1.0000000000E+00
           shiftk1     0.00000000E+00  0.00000000E+00  5.00000000E-01
           shiftk2     5.00000000E-01  5.00000000E-01  5.00000000E-01
          spgroup           1
           toldfe1     1.00000000E-07 Hartree
           toldfe2     0.00000000E+00 Hartree
           tolwfr1     0.00000000E+00
           tolwfr2     1.00000000E-12
            typat      1  2  2
              wtk1       0.06250    0.12500    0.06250    0.12500    0.12500    0.12500
                         0.12500    0.06250    0.12500    0.06250
              wtk2       1.00000    1.00000    1.00000    1.00000    1.00000    1.00000
                         1.00000    1.00000    1.00000    1.00000    1.00000    1.00000
                         1.00000    1.00000    1.00000    1.00000    1.00000    1.00000
                         1.00000    1.00000    1.00000    1.00000    1.00000    1.00000
                         1.00000    1.00000    1.00000    1.00000    1.00000    1.00000
                         1.00000    1.00000    1.00000    1.00000    1.00000    1.00000
                         1.00000    1.00000    1.00000    1.00000    1.00000    1.00000
                         1.00000    1.00000    1.00000    1.00000    1.00000    1.00000
                         1.00000    1.00000
                       outvars : Printing only first  50 k-points.
           xangst      1.5750000000E+00  9.0932667397E-01  0.0000000000E+00
                       1.5750000000E+00 -9.0932667397E-01 -1.8388847000E+00
                       1.5750000000E+00 -9.0932667397E-01  1.8388847000E+00
            xcart      2.9763186593E+00  1.7183783791E+00  0.0000000000E+00
                       2.9763186593E+00 -1.7183783791E+00 -3.4749884730E+00
                       2.9763186593E+00 -1.7183783791E+00  3.4749884730E+00
             xred      3.3333333333E-01  6.6666666667E-01  0.0000000000E+00
                       6.6666666667E-01  3.3333333333E-01 -9.1944235000E-02
                       6.6666666667E-01  3.3333333333E-01  9.1944235000E-02
            znucl       42.00000   16.00000
 
================================================================================
 
 chkinp: Checking input parameters for consistency, jdtset=   1.
 
 chkinp: Checking input parameters for consistency, jdtset=   2.
 
================================================================================
== DATASET  1 ==================================================================
-   mpi_nproc: 1, omp_nthreads: -1 (-1 if OMP is not activated)
 

--- !DatasetInfo
iteration_state: {dtset: 1, }
dimensions: {natom: 3, nkpt: 10, mband: 14, nsppol: 1, nspinor: 1, nspden: 1, mpw: 9128, }
cutoff_energies: {ecut:  30.0, pawecutdg:  -1.0, }
electrons: {nelect:   2.60000000E+01, charge:   0.00000000E+00, occopt:   1.00000000E+00, tsmear:   1.00000000E-02, }
meta: {optdriver: 0, ionmov: 0, optcell: 0, iscf: 7, paral_kgb: 0, }
...

 Exchange-correlation functional for the present dataset will be:
  GGA: Perdew-Burke-Ernzerhof functional - ixc=11
 Citation for XC functional:
  J.P.Perdew, K.Burke, M.Ernzerhof, PRL 77, 3865 (1996)
 
 Real(R)+Recip(G) space primitive vectors, cartesian coordinates (Bohr,Bohr^-1):
 R(1)=  2.9763187 -5.1551351  0.0000000  G(1)=  0.1679928 -0.0969907  0.0000000
 R(2)=  2.9763187  5.1551351  0.0000000  G(2)=  0.1679928  0.0969907  0.0000000
 R(3)=  0.0000000  0.0000000 37.7945227  G(3)=  0.0000000  0.0000000  0.0264589
 Unit cell volume ucvol=  1.1597873E+03 bohr^3
 Angles (23,13,12)=  9.00000000E+01  9.00000000E+01  1.20000000E+02 degrees
 
 getcut: wavevector=  0.0000  0.0000  0.0000  ngfft=  30  30 192
         ecut(hartree)=     30.000   => boxcut(ratio)=   2.04554
 
--- Pseudopotential description ------------------------------------------------
- pspini: atom type   1  psp file is ./persudo/Mo.psp8
- pspatm: opening atomic psp file    ./persudo/Mo.psp8
- Mo    ONCVPSP-3.2.3.1  r_core=   1.45541   1.45541   1.35488
- 42.00000  14.00000    170510                znucl, zion, pspdat
    8   11    2    4       600   0.00000      pspcod,pspxc,lmax,lloc,mmax,r2well
    5.99000000000000    3.00000000000000    0.00000000000000   rchrg,fchrg,qchrg
     nproj     2     2     2
     extension_switch     1
  pspatm : epsatm=   15.95693586
         --- l  ekb(1:nproj) -->
             0   13.833287    1.350687
             1    8.015347    1.134034
             2    2.765699    0.969071
 pspatm: atomic psp has been read  and splines computed
 
- pspini: atom type   2  psp file is ./persudo/S.psp8
- pspatm: opening atomic psp file    ./persudo/S.psp8
- S     ONCVPSP-4.0.1  r_core=   1.45687   1.45687   1.45687
- 16.00000   6.00000    220131                znucl, zion, pspdat
    8   11    2    4       600   0.00000      pspcod,pspxc,lmax,lloc,mmax,r2well
    5.99000000000000    6.00000000000000    0.00000000000000   rchrg,fchrg,qchrg
     nproj     2     2     2
     extension_switch     1
  pspatm : epsatm=    9.04179351
         --- l  ekb(1:nproj) -->
             0    6.774234    0.542270
             1    3.022426    0.737017
             2   -5.033160   -1.531047
 pspatm: atomic psp has been read  and splines computed
 
   8.85053595E+02                                ecore*ucvol(ha*bohr**3)
--------------------------------------------------------------------------------
 
_setup2: Arith. and geom. avg. npw (full set) are    9108.625    9108.605
 
================================================================================

--- !BeginCycle
iteration_state: {dtset: 1, }
solver: {iscf: 7, nstep: 20, nline: 4, wfoptalg: 0, }
tolerances: {toldfe: 1.00E-07, }
...
 
     iter   Etot(hartree)      deltaE(h)  residm     vres2
 ETOT  1  -91.461366159032    -9.146E+01 7.981E-02 1.048E+04
 ETOT  2  -86.493903933820     4.967E+00 6.066E-02 9.386E+04
 ETOT  3  -92.239316600703    -5.745E+00 8.989E-02 2.060E+03
 ETOT  4  -92.310691320250    -7.137E-02 1.642E-02 1.039E+03
 ETOT  5  -92.326348633640    -1.566E-02 3.723E-04 6.349E+02
 ETOT  6  -92.331955942841    -5.607E-03 2.482E-04 4.570E+02
 ETOT  7  -92.338907844790    -6.952E-03 1.199E-04 2.282E+02
 ETOT  8  -92.341969679254    -3.062E-03 2.620E-04 1.141E+02
 ETOT  9  -92.342555872414    -5.862E-04 1.441E-04 8.846E+01
 ETOT 10  -92.343100119117    -5.442E-04 3.115E-04 6.166E+01
 ETOT 11  -92.343392022471    -2.919E-04 1.545E-04 4.456E+01
 ETOT 12  -92.343524750404    -1.327E-04 3.275E-04 2.533E+01
 ETOT 13  -92.343513968184     1.078E-05 1.391E-04 3.020E+01
 ETOT 14  -92.343516264752    -2.297E-06 2.817E-04 2.863E+01
 ETOT 15  -92.343529055259    -1.279E-05 1.157E-04 2.619E+01
 ETOT 16  -92.343542865477    -1.381E-05 2.248E-04 2.296E+01
 ETOT 17  -92.343534577223     8.288E-06 8.765E-05 2.309E+01
 ETOT 18  -92.343530380924     4.196E-06 1.644E-04 2.318E+01
 ETOT 19  -92.343541126395    -1.075E-05 6.309E-05 2.177E+01
 ETOT 20  -92.343549707783    -8.581E-06 1.157E-04 1.971E+01
 
 Cartesian components of stress tensor (hartree/bohr^3)
  sigma(1 1)=  9.14992992E-05  sigma(3 2)= -4.39054882E-09
  sigma(2 2)=  9.14837461E-05  sigma(3 1)= -1.63875407E-09
  sigma(3 3)=  4.15059646E-04  sigma(2 1)=  1.00151330E-08
 
 
 scprqt:  WARNING -
  nstep=   20 was not enough SCF cycles to converge;
  maximum energy difference=  8.581E-06 exceeds toldfe=  1.000E-07
 

--- !ResultsGS
iteration_state: {dtset: 1, }
comment   : Summary of ground state results
lattice_vectors:
- [  2.9763187,  -5.1551351,   0.0000000, ]
- [  2.9763187,   5.1551351,   0.0000000, ]
- [  0.0000000,   0.0000000,  37.7945227, ]
lattice_lengths: [   5.95264,    5.95264,   37.79452, ]
lattice_angles: [ 90.000,  90.000, 120.000, ] # degrees, (23, 13, 12)
lattice_volume:   1.1597873E+03
convergence: {deltae: -8.581E-06, res2:  1.971E+01, residm:  1.157E-04, diffor: null, }
etotal    :  -9.23435497E+01
entropy   :   0.00000000E+00
fermie    :  -7.48922881E-02
cartesian_stress_tensor: # hartree/bohr^3
- [  9.14992992E-05,   1.00151330E-08,  -1.63875407E-09, ]
- [  1.00151330E-08,   9.14837461E-05,  -4.39054882E-09, ]
- [ -1.63875407E-09,  -4.39054882E-09,   4.15059646E-04, ]
pressure_GPa:  -5.8650E+00
xred      :
- [  3.3333E-01,   6.6667E-01,   0.0000E+00, Mo]
- [  6.6667E-01,   3.3333E-01,  -9.1944E-02,  S]
- [  6.6667E-01,   3.3333E-01,   9.1944E-02,  S]
cartesian_forces: # hartree/bohr
- [ -9.25077969E-07,  -6.91151486E-07,  -8.76089458E-06, ]
- [  2.77907180E-07,   1.81500413E-06,   6.92181226E-02, ]
- [  6.47170789E-07,  -1.12385264E-06,  -6.92093617E-02, ]
force_length_stats: {min:   8.83666981E-06, max:   6.92181226E-02, mean:   4.61454403E-02, }
...

 Integrated electronic density in atomic spheres:
 ------------------------------------------------
 Atom  Sphere_radius  Integrated_density
    1        2.00000         10.42349198
    2        2.00000          3.79831482
    3        2.00000          3.79833192
================================================================================
 
 ----iterations are completed or convergence reached----
 
 Mean square residual over all n,k,spin=   97.573E-08; max=  11.567E-05
 reduced coordinates (array xred) for    3 atoms
       0.333333333333      0.666666666667      0.000000000000
       0.666666666667      0.333333333333     -0.091944235000
       0.666666666667      0.333333333333      0.091944235000
 rms dE/dt=  1.2331E+00; max dE/dt=  2.6157E+00; dE/dt below (all hartree)
    1      -0.000001502342      0.000004482072      0.000311709121
    2       0.000007836762     -0.000012017966     -2.616085308199
    3      -0.000008412488      0.000002033191      2.615715384954
 
 cartesian coordinates (angstrom) at end:
    1      1.57500000000000     0.90932667396900     0.00000000000000
    2      1.57500000000000    -0.90932667396900    -1.83888470000000
    3      1.57500000000000    -0.90932667396900     1.83888470000000
 
 cartesian forces (hartree/bohr) at end:
    1     -0.00000092507797    -0.00000069115149    -0.00000876089458
    2      0.00000027790718     0.00000181500413     0.06921812261483
    3      0.00000064717079    -0.00000112385264    -0.06920936172026
 frms,max,avg= 3.2627671E-02 6.9218123E-02   4.245E-07  1.107E-07  5.134E-07 h/b
 
 cartesian forces (eV/Angstrom) at end:
    1     -0.00004756941779    -0.00003554043540    -0.00045050327448
    2      0.00001429056056     0.00009333125683     3.55933867514710
    3      0.00003327885723    -0.00005779082143    -3.55888817187262
 frms,max,avg= 1.6777822E+00 3.5593387E+00   2.183E-05  5.693E-06  2.640E-05 e/A
 length scales=  5.952637318590  5.952637318590 37.794522657713 bohr
              =  3.150000000000  3.150000000000 20.000000000000 angstroms
 prteigrs : about to open file mos2o_DS1_EIG
 Fermi (or HOMO) energy (hartree) =  -0.07489   Average Vxc (hartree)=  -0.15049
 Eigenvalues (hartree) for nkpt=  10  k points:
 kpt#   1, nband= 14, wtk=  0.06250, kpt=  0.0000  0.0000  0.5000 (reduced coord)
  -2.30694   -1.35515   -1.34405   -1.34404   -0.56231   -0.53859   -0.25412   -0.15361
  -0.11447   -0.11447   -0.09883   -0.07963   -0.07963    0.02385
 prteigrs : prtvol=0 or 1, do not print more k-points.
 

--- !EnergyTerms
iteration_state     : {dtset: 1, }
comment             : Components of total free energy in Hartree
kinetic             :  2.95780999272702E+01
hartree             :  2.66253933271489E+02
xc                  : -1.64448591112842E+01
Ewald energy        :  1.89573206011761E+02
psp_core            :  7.63117176066322E-01
local_psp           : -5.73625297701236E+02
non_local_psp       :  1.15582507181513E+01
total_energy        : -9.23435497077835E+01
total_energy_eV     : -2.51279577809349E+03
band_energy         : -1.69353868790079E+01
...

 
 Cartesian components of stress tensor (hartree/bohr^3)
  sigma(1 1)=  9.14992992E-05  sigma(3 2)= -4.39054882E-09
  sigma(2 2)=  9.14837461E-05  sigma(3 1)= -1.63875407E-09
  sigma(3 3)=  4.15059646E-04  sigma(2 1)=  1.00151330E-08
 
-Cartesian components of stress tensor (GPa)         [Pressure= -5.8650E+00 GPa]
- sigma(1 1)=  2.69200187E+00  sigma(3 2)= -1.29174384E-04
- sigma(2 2)=  2.69154428E+00  sigma(3 1)= -4.82138012E-05
- sigma(3 3)=  1.22114743E+01  sigma(2 1)=  2.94655336E-04
 
================================================================================
== DATASET  2 ==================================================================
-   mpi_nproc: 1, omp_nthreads: -1 (-1 if OMP is not activated)
 

--- !DatasetInfo
iteration_state: {dtset: 2, }
dimensions: {natom: 3, nkpt: 68, mband: 8, nsppol: 1, nspinor: 1, nspden: 1, mpw: 9191, }
cutoff_energies: {ecut:  30.0, pawecutdg:  -1.0, }
electrons: {nelect:   2.60000000E+01, charge:   0.00000000E+00, occopt:   1.00000000E+00, tsmear:   1.00000000E-02, }
meta: {optdriver: 0, ionmov: 0, optcell: 0, iscf: -2, paral_kgb: 0, }
...

 mkfilename : getden/=0, take file _DEN from output of DATASET   1.
 
 Exchange-correlation functional for the present dataset will be:
  GGA: Perdew-Burke-Ernzerhof functional - ixc=11
 Citation for XC functional:
  J.P.Perdew, K.Burke, M.Ernzerhof, PRL 77, 3865 (1996)
 
 Real(R)+Recip(G) space primitive vectors, cartesian coordinates (Bohr,Bohr^-1):
 R(1)=  2.9763187 -5.1551351  0.0000000  G(1)=  0.1679928 -0.0969907  0.0000000
 R(2)=  2.9763187  5.1551351  0.0000000  G(2)=  0.1679928  0.0969907  0.0000000
 R(3)=  0.0000000  0.0000000 37.7945227  G(3)=  0.0000000  0.0000000  0.0264589
 Unit cell volume ucvol=  1.1597873E+03 bohr^3
 Angles (23,13,12)=  9.00000000E+01  9.00000000E+01  1.20000000E+02 degrees
 
 getcut: wavevector=  0.0000  0.0000  0.0000  ngfft=  30  30 192
         ecut(hartree)=     30.000   => boxcut(ratio)=   2.04554
--------------------------------------------------------------------------------
 
 
================================================================================
 prteigrs : about to open file mos2o_DS2_EIG
 Non-SCF case, kpt    1 (  0.00000  0.00000  0.00000), residuals and eigenvalues=
  3.94E-13  7.14E-13  2.93E-13  6.32E-13  6.02E-13  2.77E-13  2.56E-12  3.80E-08
 -2.2910E+00 -1.3394E+00 -1.3281E+00 -1.3281E+00 -5.4861E-01 -5.2521E-01
 -2.4016E-01 -1.4119E-01
 Non-SCF case, kpt    2 (  0.02941  0.00000  0.00000), residuals and eigenvalues=
  5.18E-13  4.65E-13  6.97E-13  5.79E-13  7.45E-13  6.72E-13  7.52E-13  2.26E-08
 -2.2910E+00 -1.3393E+00 -1.3282E+00 -1.3281E+00 -5.4816E-01 -5.2491E-01
 -2.3953E-01 -1.4157E-01
 Non-SCF case, kpt    3 (  0.05882  0.00000  0.00000), residuals and eigenvalues=
  3.26E-13  2.90E-13  7.48E-13  8.80E-13  7.21E-13  4.06E-13  7.77E-12  1.51E-07
 -2.2909E+00 -1.3393E+00 -1.3285E+00 -1.3282E+00 -5.4679E-01 -5.2399E-01
 -2.3766E-01 -1.4269E-01
 Non-SCF case, kpt    4 (  0.08824  0.00000  0.00000), residuals and eigenvalues=
  3.14E-13  5.01E-13  2.74E-13  2.22E-13  9.18E-13  7.11E-13  9.23E-13  4.86E-07
 -2.2909E+00 -1.3392E+00 -1.3291E+00 -1.3283E+00 -5.4454E-01 -5.2247E-01
 -2.3460E-01 -1.4452E-01
 Non-SCF case, kpt    5 (  0.11765  0.00000  0.00000), residuals and eigenvalues=
  4.79E-13  6.04E-13  8.86E-13  8.79E-13  7.03E-13  9.50E-13  2.78E-10  1.07E-06
 -2.2908E+00 -1.3390E+00 -1.3298E+00 -1.3285E+00 -5.4144E-01 -5.2039E-01
 -2.3049E-01 -1.4704E-01
 Non-SCF case, kpt    6 (  0.14706  0.00000  0.00000), residuals and eigenvalues=
  7.39E-13  4.84E-13  7.53E-13  3.37E-13  9.49E-13  8.42E-13  1.98E-11  1.56E-06
 -2.2907E+00 -1.3389E+00 -1.3307E+00 -1.3287E+00 -5.3754E-01 -5.1776E-01
 -2.2548E-01 -1.5026E-01
 Non-SCF case, kpt    7 (  0.17647  0.00000  0.00000), residuals and eigenvalues=
  5.85E-13  8.25E-13  9.86E-13  3.97E-13  5.86E-13  7.97E-13  1.85E-11  2.09E-05
 -2.2906E+00 -1.3387E+00 -1.3317E+00 -1.3289E+00 -5.3290E-01 -5.1464E-01
 -2.1984E-01 -1.5416E-01
 Non-SCF case, kpt    8 (  0.20588  0.00000  0.00000), residuals and eigenvalues=
  3.38E-13  7.70E-13  4.77E-13  3.17E-13  5.41E-13  5.97E-13  4.92E-10  1.08E-05
 -2.2905E+00 -1.3385E+00 -1.3329E+00 -1.3292E+00 -5.2761E-01 -5.1109E-01
 -2.1395E-01 -1.5907E-01
 Non-SCF case, kpt    9 (  0.23529  0.00000  0.00000), residuals and eigenvalues=
  5.60E-13  3.04E-13  7.10E-13  7.97E-13  6.08E-13  3.62E-13  8.79E-09  1.51E-05
 -2.2903E+00 -1.3383E+00 -1.3341E+00 -1.3295E+00 -5.2177E-01 -5.0719E-01
 -2.0837E-01 -1.6487E-01
 Non-SCF case, kpt   10 (  0.26471  0.00000  0.00000), residuals and eigenvalues=
  7.18E-13  9.74E-13  2.95E-13  7.23E-13  5.35E-13  4.47E-13  1.56E-08  2.93E-06
 -2.2902E+00 -1.3381E+00 -1.3353E+00 -1.3298E+00 -5.1551E-01 -5.0303E-01
 -2.0415E-01 -1.7205E-01
 Non-SCF case, kpt   11 (  0.29412  0.00000  0.00000), residuals and eigenvalues=
  6.09E-13  6.71E-13  3.21E-13  7.63E-13  8.86E-13  3.04E-13  1.46E-06  2.13E-05
 -2.2901E+00 -1.3379E+00 -1.3365E+00 -1.3300E+00 -5.0900E-01 -4.9874E-01
 -2.0336E-01 -1.7973E-01
 Non-SCF case, kpt   12 (  0.32353  0.00000  0.00000), residuals and eigenvalues=
  6.50E-13  7.50E-13  2.26E-13  3.93E-13  2.95E-13  4.26E-13  5.13E-05  2.20E-04
 -2.2900E+00 -1.3377E+00 -1.3376E+00 -1.3303E+00 -5.0244E-01 -4.9445E-01
 -2.0797E-01 -1.8258E-01
 Non-SCF case, kpt   13 (  0.35294  0.00000  0.00000), residuals and eigenvalues=
  8.93E-13  3.61E-13  3.54E-13  2.92E-13  4.95E-13  3.72E-13  5.26E-06  2.87E-04
 -2.2899E+00 -1.3386E+00 -1.3375E+00 -1.3306E+00 -4.9607E-01 -4.9032E-01
 -2.1634E-01 -1.9639E-01
 Non-SCF case, kpt   14 (  0.38235  0.00000  0.00000), residuals and eigenvalues=
  6.57E-13  5.79E-13  2.97E-13  2.33E-13  9.69E-13  6.16E-13  2.78E-08  2.25E-07
 -2.2898E+00 -1.3395E+00 -1.3373E+00 -1.3308E+00 -4.9017E-01 -4.8656E-01
 -2.2511E-01 -2.0547E-01
 Non-SCF case, kpt   15 (  0.41176  0.00000  0.00000), residuals and eigenvalues=
  6.85E-13  2.74E-13  7.53E-13  3.10E-13  7.35E-13  8.45E-13  1.21E-09  1.89E-07
 -2.2897E+00 -1.3402E+00 -1.3372E+00 -1.3309E+00 -4.8507E-01 -4.8334E-01
 -2.3292E-01 -2.1223E-01
 Non-SCF case, kpt   16 (  0.44118  0.00000  0.00000), residuals and eigenvalues=
  6.23E-13  4.91E-13  5.74E-13  4.02E-13  5.07E-13  4.01E-13  2.32E-08  2.85E-07
 -2.2896E+00 -1.3408E+00 -1.3371E+00 -1.3311E+00 -4.8110E-01 -4.8087E-01
 -2.3901E-01 -2.1737E-01
 Non-SCF case, kpt   17 (  0.47059  0.00000  0.00000), residuals and eigenvalues=
  5.80E-13  2.22E-13  6.62E-13  1.98E-13  7.76E-13  6.40E-13  7.23E-09  1.69E-07
 -2.2896E+00 -1.3411E+00 -1.3370E+00 -1.3311E+00 -4.7932E-01 -4.7856E-01
 -2.4287E-01 -2.2059E-01
 Non-SCF case, kpt   18 (  0.50000  0.00000  0.00000), residuals and eigenvalues=
  3.82E-13  2.60E-13  2.41E-13  3.06E-13  3.18E-13  8.59E-13  3.44E-08  5.57E-07
 -2.2896E+00 -1.3412E+00 -1.3370E+00 -1.3312E+00 -4.7879E-01 -4.7769E-01
 -2.4419E-01 -2.2168E-01
 Non-SCF case, kpt   19 (  0.48333  0.03333  0.00000), residuals and eigenvalues=
  7.26E-13  3.16E-13  6.47E-13  9.39E-13  5.88E-13  9.02E-13  5.16E-10  5.40E-08
 -2.2896E+00 -1.3412E+00 -1.3370E+00 -1.3313E+00 -4.7862E-01 -4.7748E-01
 -2.4363E-01 -2.2149E-01
 Non-SCF case, kpt   20 (  0.46667  0.06667  0.00000), residuals and eigenvalues=
  8.81E-13  1.96E-13  8.26E-13  6.97E-13  3.71E-13  9.82E-13  2.45E-09  1.26E-08
 -2.2896E+00 -1.3410E+00 -1.3370E+00 -1.3316E+00 -4.7814E-01 -4.7687E-01
 -2.4197E-01 -2.2094E-01
 Non-SCF case, kpt   21 (  0.45000  0.10000  0.00000), residuals and eigenvalues=
  5.85E-13  3.13E-13  3.55E-13  5.39E-13  9.71E-13  4.40E-13  1.09E-09  1.09E-07
 -2.2895E+00 -1.3408E+00 -1.3370E+00 -1.3320E+00 -4.7736E-01 -4.7588E-01
 -2.3924E-01 -2.2010E-01
 Non-SCF case, kpt   22 (  0.43333  0.13333  0.00000), residuals and eigenvalues=
  7.25E-13  6.52E-13  3.23E-13  4.60E-13  7.29E-13  5.60E-13  2.62E-08  1.19E-07
 -2.2895E+00 -1.3405E+00 -1.3369E+00 -1.3326E+00 -4.7635E-01 -4.7458E-01
 -2.3551E-01 -2.1908E-01
 Non-SCF case, kpt   23 (  0.41667  0.16667  0.00000), residuals and eigenvalues=
  8.82E-13  4.62E-13  7.17E-13  5.90E-13  9.79E-13  4.68E-13  3.36E-09  5.26E-08
 -2.2895E+00 -1.3401E+00 -1.3369E+00 -1.3333E+00 -4.7518E-01 -4.7306E-01
 -2.3084E-01 -2.1805E-01
 Non-SCF case, kpt   24 (  0.40000  0.20000  0.00000), residuals and eigenvalues=
  7.53E-13  9.40E-13  6.73E-13  9.61E-13  7.59E-13  7.75E-13  2.05E-08  4.26E-07
 -2.2895E+00 -1.3397E+00 -1.3368E+00 -1.3341E+00 -4.7394E-01 -4.7144E-01
 -2.2537E-01 -2.1723E-01
 Non-SCF case, kpt   25 (  0.38333  0.23333  0.00000), residuals and eigenvalues=
  3.71E-13  5.61E-13  4.31E-13  2.41E-13  9.13E-13  9.73E-13  2.64E-08  1.77E-08
 -2.2894E+00 -1.3391E+00 -1.3368E+00 -1.3349E+00 -4.7275E-01 -4.6986E-01
 -2.1927E-01 -2.1679E-01
 Non-SCF case, kpt   26 (  0.36667  0.26667  0.00000), residuals and eigenvalues=
  6.66E-13  3.33E-13  9.51E-13  9.67E-13  9.60E-13  9.91E-13  3.59E-08  2.57E-08
 -2.2894E+00 -1.3386E+00 -1.3367E+00 -1.3357E+00 -4.7173E-01 -4.6849E-01
 -2.1680E-01 -2.1287E-01
 Non-SCF case, kpt   27 (  0.35000  0.30000  0.00000), residuals and eigenvalues=
  6.93E-13  2.86E-13  4.77E-13  8.64E-13  4.39E-13  8.90E-13  1.47E-08  9.44E-07
 -2.2894E+00 -1.3380E+00 -1.3367E+00 -1.3365E+00 -4.7103E-01 -4.6752E-01
 -2.1709E-01 -2.0705E-01
 Non-SCF case, kpt   28 (  0.33333  0.33333  0.00000), residuals and eigenvalues=
  7.15E-13  4.03E-13  3.80E-13  3.82E-13  8.71E-13  5.41E-13  1.33E-08  4.14E-07
 -2.2894E+00 -1.3376E+00 -1.3369E+00 -1.3367E+00 -4.7076E-01 -4.6715E-01
 -2.1729E-01 -2.0432E-01
 Non-SCF case, kpt   29 (  0.35000  0.35000  0.02500), residuals and eigenvalues=
  8.59E-13  4.94E-13  2.92E-13  9.71E-13  5.96E-13  7.81E-13  1.75E-07  2.68E-07
 -2.2894E+00 -1.3380E+00 -1.3367E+00 -1.3365E+00 -4.7103E-01 -4.6752E-01
 -2.1709E-01 -2.0705E-01
 Non-SCF case, kpt   30 (  0.36667  0.36667  0.05000), residuals and eigenvalues=
  5.04E-13  3.86E-13  9.74E-13  5.76E-13  9.25E-13  2.23E-13  3.53E-08  1.78E-07
 -2.2894E+00 -1.3386E+00 -1.3367E+00 -1.3357E+00 -4.7173E-01 -4.6849E-01
 -2.1680E-01 -2.1287E-01
 Non-SCF case, kpt   31 (  0.38333  0.38333  0.07500), residuals and eigenvalues=
  3.88E-13  9.79E-13  2.12E-13  8.40E-13  8.17E-13  8.06E-13  7.66E-09  1.79E-08
 -2.2894E+00 -1.3391E+00 -1.3368E+00 -1.3349E+00 -4.7275E-01 -4.6986E-01
 -2.1927E-01 -2.1679E-01
 Non-SCF case, kpt   32 (  0.40000  0.40000  0.10000), residuals and eigenvalues=
  3.19E-13  5.97E-13  5.20E-13  8.33E-13  5.17E-13  7.78E-13  8.65E-08  2.24E-07
 -2.2895E+00 -1.3397E+00 -1.3368E+00 -1.3341E+00 -4.7394E-01 -4.7144E-01
 -2.2537E-01 -2.1723E-01
 Non-SCF case, kpt   33 (  0.41667  0.41667  0.12500), residuals and eigenvalues=
  8.73E-13  2.35E-13  4.08E-13  3.19E-13  8.07E-13  9.13E-13  1.10E-09  8.57E-08
 -2.2895E+00 -1.3401E+00 -1.3369E+00 -1.3333E+00 -4.7518E-01 -4.7306E-01
 -2.3084E-01 -2.1805E-01
 Non-SCF case, kpt   34 (  0.43333  0.43333  0.15000), residuals and eigenvalues=
  8.03E-13  9.11E-13  5.95E-13  2.84E-13  5.10E-13  5.32E-13  1.61E-09  2.91E-08
 -2.2895E+00 -1.3405E+00 -1.3369E+00 -1.3326E+00 -4.7635E-01 -4.7458E-01
 -2.3551E-01 -2.1908E-01
 Non-SCF case, kpt   35 (  0.45000  0.45000  0.17500), residuals and eigenvalues=
  6.46E-13  2.39E-13  8.97E-13  4.16E-13  6.77E-13  4.19E-13  1.93E-09  9.76E-08
 -2.2895E+00 -1.3408E+00 -1.3370E+00 -1.3320E+00 -4.7736E-01 -4.7588E-01
 -2.3924E-01 -2.2010E-01
 Non-SCF case, kpt   36 (  0.46667  0.46667  0.20000), residuals and eigenvalues=
  7.47E-13  3.16E-13  7.12E-13  4.03E-13  6.51E-13  5.13E-13  9.16E-09  1.26E-07
 -2.2896E+00 -1.3410E+00 -1.3370E+00 -1.3315E+00 -4.7814E-01 -4.7687E-01
 -2.4197E-01 -2.2094E-01
 Non-SCF case, kpt   37 (  0.48333  0.48333  0.22500), residuals and eigenvalues=
  7.37E-13  3.34E-13  1.99E-13  2.00E-13  6.36E-13  5.30E-13  1.44E-08  3.45E-08
 -2.2896E+00 -1.3412E+00 -1.3370E+00 -1.3313E+00 -4.7862E-01 -4.7748E-01
 -2.4363E-01 -2.2149E-01
 Non-SCF case, kpt   38 (  0.50000  0.50000  0.25000), residuals and eigenvalues=
  6.43E-13  2.40E-13  4.38E-13  8.89E-13  9.79E-13  6.30E-13  2.56E-09  9.92E-08
 -2.2896E+00 -1.3412E+00 -1.3370E+00 -1.3312E+00 -4.7879E-01 -4.7769E-01
 -2.4419E-01 -2.2169E-01
 Non-SCF case, kpt   39 (  0.51667  0.51667  0.27500), residuals and eigenvalues=
  5.46E-13  2.62E-13  6.36E-13  3.04E-13  8.62E-13  5.02E-13  1.15E-08  2.01E-07
 -2.2896E+00 -1.3412E+00 -1.3370E+00 -1.3313E+00 -4.7862E-01 -4.7748E-01
 -2.4363E-01 -2.2149E-01
 Non-SCF case, kpt   40 (  0.53333  0.53333  0.30000), residuals and eigenvalues=
  8.86E-13  5.56E-13  2.41E-13  4.62E-13  7.12E-13  7.42E-13  9.06E-09  2.92E-07
 -2.2896E+00 -1.3410E+00 -1.3370E+00 -1.3315E+00 -4.7814E-01 -4.7687E-01
 -2.4197E-01 -2.2094E-01
 Non-SCF case, kpt   41 (  0.55000  0.55000  0.32500), residuals and eigenvalues=
  9.28E-13  1.93E-13  2.33E-13  8.95E-13  5.48E-13  5.46E-13  3.82E-09  1.49E-07
 -2.2895E+00 -1.3408E+00 -1.3370E+00 -1.3320E+00 -4.7736E-01 -4.7588E-01
 -2.3924E-01 -2.2010E-01
 Non-SCF case, kpt   42 (  0.56667  0.56667  0.35000), residuals and eigenvalues=
  7.46E-13  4.08E-13  8.89E-13  5.30E-13  8.14E-13  4.98E-13  5.45E-10  1.35E-08
 -2.2895E+00 -1.3405E+00 -1.3369E+00 -1.3326E+00 -4.7635E-01 -4.7458E-01
 -2.3551E-01 -2.1908E-01
 Non-SCF case, kpt   43 (  0.58333  0.58333  0.37500), residuals and eigenvalues=
  3.74E-13  4.00E-13  9.66E-13  8.28E-13  6.19E-13  7.65E-13  1.15E-08  3.44E-08
 -2.2895E+00 -1.3401E+00 -1.3369E+00 -1.3333E+00 -4.7518E-01 -4.7306E-01
 -2.3084E-01 -2.1805E-01
 Non-SCF case, kpt   44 (  0.60000  0.60000  0.40000), residuals and eigenvalues=
  9.45E-13  2.46E-13  5.56E-13  6.71E-13  8.69E-13  9.23E-13  1.91E-08  5.11E-09
 -2.2895E+00 -1.3397E+00 -1.3368E+00 -1.3340E+00 -4.7394E-01 -4.7144E-01
 -2.2537E-01 -2.1723E-01
 Non-SCF case, kpt   45 (  0.61667  0.61667  0.42500), residuals and eigenvalues=
  4.71E-13  4.61E-13  5.78E-13  2.70E-13  4.20E-13  8.82E-13  1.00E-07  5.16E-08
 -2.2894E+00 -1.3391E+00 -1.3368E+00 -1.3349E+00 -4.7275E-01 -4.6986E-01
 -2.1927E-01 -2.1679E-01
 Non-SCF case, kpt   46 (  0.63333  0.63333  0.45000), residuals and eigenvalues=
  3.72E-13  4.11E-13  6.27E-13  9.86E-13  5.70E-13  9.40E-13  8.26E-09  2.02E-08
 -2.2894E+00 -1.3386E+00 -1.3368E+00 -1.3357E+00 -4.7173E-01 -4.6849E-01
 -2.1680E-01 -2.1287E-01
 Non-SCF case, kpt   47 (  0.65000  0.65000  0.47500), residuals and eigenvalues=
  7.04E-13  6.81E-13  6.23E-13  4.01E-13  2.06E-13  6.44E-13  1.54E-08  5.60E-07
 -2.2894E+00 -1.3380E+00 -1.3367E+00 -1.3365E+00 -4.7103E-01 -4.6752E-01
 -2.1709E-01 -2.0705E-01
 Non-SCF case, kpt   48 (  0.66667  0.66667  0.50000), residuals and eigenvalues=
  6.32E-13  2.43E-13  2.63E-13  6.81E-13  8.82E-13  7.76E-13  8.84E-08  7.46E-08
 -2.2894E+00 -1.3376E+00 -1.3369E+00 -1.3367E+00 -4.7076E-01 -4.6715E-01
 -2.1729E-01 -2.0432E-01
 Non-SCF case, kpt   49 (  0.68333  0.68333  0.52500), residuals and eigenvalues=
  7.33E-13  3.11E-13  7.85E-13  3.38E-13  8.71E-13  7.17E-13  1.22E-07  1.35E-06
 -2.2894E+00 -1.3380E+00 -1.3367E+00 -1.3365E+00 -4.7106E-01 -4.6758E-01
 -2.1694E-01 -2.0665E-01
 Non-SCF case, kpt   50 (  0.70000  0.70000  0.55000), residuals and eigenvalues=
  7.88E-13  8.39E-13  6.53E-13  7.58E-13  6.00E-13  4.92E-13  3.44E-08  9.11E-08
 -2.2894E+00 -1.3384E+00 -1.3368E+00 -1.3358E+00 -4.7201E-01 -4.6895E-01
 -2.1560E-01 -2.1057E-01
 Non-SCF case, kpt   51 (  0.71667  0.71667  0.57500), residuals and eigenvalues=
  7.80E-13  8.16E-13  2.79E-13  1.89E-13  2.16E-13  9.47E-13  2.01E-08  1.79E-08
 -2.2895E+00 -1.3387E+00 -1.3368E+00 -1.3351E+00 -4.7365E-01 -4.7136E-01
 -2.1341E-01 -2.1296E-01
 Non-SCF case, kpt   52 (  0.73333  0.73333  0.60000), residuals and eigenvalues=
  3.73E-13  5.25E-13  3.56E-13  8.16E-13  8.88E-13  7.19E-13  1.56E-08  4.37E-08
 -2.2895E+00 -1.3388E+00 -1.3369E+00 -1.3344E+00 -4.7597E-01 -4.7482E-01
 -2.1438E-01 -2.0885E-01
 Non-SCF case, kpt   53 (  0.75000  0.75000  0.62500), residuals and eigenvalues=
  8.47E-13  9.16E-13  2.31E-13  8.22E-13  6.48E-13  5.57E-13  1.01E-07  8.69E-07
 -2.2896E+00 -1.3388E+00 -1.3370E+00 -1.3337E+00 -4.7926E-01 -4.7893E-01
 -2.1331E-01 -2.0323E-01
 Non-SCF case, kpt   54 (  0.76667  0.76667  0.65000), residuals and eigenvalues=
  6.37E-13  3.43E-13  3.69E-13  2.65E-13  3.83E-13  9.27E-13  5.54E-08  2.80E-06
 -2.2897E+00 -1.3385E+00 -1.3371E+00 -1.3330E+00 -4.8455E-01 -4.8243E-01
 -2.1034E-01 -1.9618E-01
 Non-SCF case, kpt   55 (  0.78333  0.78333  0.67500), residuals and eigenvalues=
  8.53E-13  8.81E-13  4.87E-13  9.98E-13  7.12E-13  5.33E-13  7.32E-07  1.85E-05
 -2.2898E+00 -1.3380E+00 -1.3373E+00 -1.3324E+00 -4.9048E-01 -4.8635E-01
 -2.0581E-01 -1.8795E-01
 Non-SCF case, kpt   56 (  0.80000  0.80000  0.70000), residuals and eigenvalues=
  7.72E-13  4.01E-13  7.00E-13  3.08E-13  2.61E-13  3.27E-13  1.56E-06  5.00E-05
 -2.2899E+00 -1.3375E+00 -1.3374E+00 -1.3318E+00 -4.9684E-01 -4.9056E-01
 -2.0053E-01 -1.7836E-01
 Non-SCF case, kpt   57 (  0.81667  0.81667  0.72500), residuals and eigenvalues=
  7.14E-13  6.27E-13  6.62E-13  3.51E-13  3.25E-13  8.13E-13  6.03E-06  6.60E-06
 -2.2900E+00 -1.3377E+00 -1.3366E+00 -1.3312E+00 -5.0343E-01 -4.9493E-01
 -1.9661E-01 -1.7762E-01
 Non-SCF case, kpt   58 (  0.83333  0.83333  0.75000), residuals and eigenvalues=
  7.73E-13  7.80E-13  3.83E-13  4.12E-13  8.36E-13  9.03E-13  1.17E-07  6.02E-06
 -2.2901E+00 -1.3379E+00 -1.3357E+00 -1.3307E+00 -5.1004E-01 -4.9933E-01
 -1.9744E-01 -1.7364E-01
 Non-SCF case, kpt   59 (  0.85000  0.85000  0.77500), residuals and eigenvalues=
  4.60E-13  6.27E-13  5.80E-13  8.21E-13  5.64E-13  1.97E-13  2.86E-08  1.10E-05
 -2.2902E+00 -1.3381E+00 -1.3347E+00 -1.3302E+00 -5.1648E-01 -5.0363E-01
 -2.0201E-01 -1.6534E-01
 Non-SCF case, kpt   60 (  0.86667  0.86667  0.80000), residuals and eigenvalues=
  5.77E-13  2.64E-13  9.22E-13  3.56E-13  7.32E-13  4.26E-13  3.94E-09  4.15E-05
 -2.2904E+00 -1.3383E+00 -1.3337E+00 -1.3297E+00 -5.2262E-01 -5.0774E-01
 -2.0793E-01 -1.5734E-01
 Non-SCF case, kpt   61 (  0.88333  0.88333  0.82500), residuals and eigenvalues=
  6.74E-13  6.45E-13  7.78E-13  4.91E-13  6.76E-13  3.34E-13  3.41E-10  4.06E-06
 -2.2905E+00 -1.3385E+00 -1.3326E+00 -1.3293E+00 -5.2831E-01 -5.1155E-01
 -2.1420E-01 -1.5607E-01
 Non-SCF case, kpt   62 (  0.90000  0.90000  0.85000), residuals and eigenvalues=
  8.97E-13  9.23E-13  1.95E-13  8.46E-13  5.85E-13  2.53E-13  1.52E-11  1.49E-05
 -2.2906E+00 -1.3387E+00 -1.3315E+00 -1.3290E+00 -5.3344E-01 -5.1500E-01
 -2.2030E-01 -1.5265E-01
 Non-SCF case, kpt   63 (  0.91667  0.91667  0.87500), residuals and eigenvalues=
  6.39E-13  1.91E-13  6.25E-13  8.51E-13  9.87E-13  2.66E-13  1.18E-10  3.80E-06
 -2.2907E+00 -1.3389E+00 -1.3306E+00 -1.3287E+00 -5.3793E-01 -5.1802E-01
 -2.2591E-01 -1.4954E-01
 Non-SCF case, kpt   64 (  0.93333  0.93333  0.90000), residuals and eigenvalues=
  6.00E-13  9.29E-13  3.23E-13  2.03E-13  7.11E-13  2.99E-13  1.45E-11  1.00E-06
 -2.2908E+00 -1.3391E+00 -1.3297E+00 -1.3285E+00 -5.4170E-01 -5.2056E-01
 -2.3081E-01 -1.4672E-01
 Non-SCF case, kpt   65 (  0.95000  0.95000  0.92500), residuals and eigenvalues=
  5.27E-13  9.45E-13  2.35E-13  3.03E-13  9.38E-13  7.75E-13  5.55E-11  2.71E-07
 -2.2909E+00 -1.3392E+00 -1.3290E+00 -1.3283E+00 -5.4469E-01 -5.2257E-01
 -2.3480E-01 -1.4438E-01
 Non-SCF case, kpt   66 (  0.96667  0.96667  0.95000), residuals and eigenvalues=
  5.70E-13  6.74E-13  7.51E-13  8.41E-13  9.63E-13  5.55E-13  7.63E-12  3.38E-08
 -2.2910E+00 -1.3393E+00 -1.3285E+00 -1.3282E+00 -5.4686E-01 -5.2403E-01
 -2.3775E-01 -1.4263E-01
 Non-SCF case, kpt   67 (  0.98333  0.98333  0.97500), residuals and eigenvalues=
  7.99E-13  3.33E-13  3.27E-13  9.44E-13  8.53E-13  7.41E-13  8.59E-12  5.24E-07
 -2.2910E+00 -1.3393E+00 -1.3282E+00 -1.3281E+00 -5.4817E-01 -5.2492E-01
 -2.3955E-01 -1.4156E-01
 Non-SCF case, kpt   68 (  1.00000  1.00000  1.00000), residuals and eigenvalues=
  5.45E-13  3.15E-13  7.68E-13  8.44E-13  7.18E-13  6.56E-13  5.36E-12  5.22E-07
 -2.2910E+00 -1.3394E+00 -1.3281E+00 -1.3281E+00 -5.4861E-01 -5.2521E-01
 -2.4016E-01 -1.4119E-01
 

--- !ResultsGS
iteration_state: {dtset: 2, }
comment   : Summary of ground state results
lattice_vectors:
- [  2.9763187,  -5.1551351,   0.0000000, ]
- [  2.9763187,   5.1551351,   0.0000000, ]
- [  0.0000000,   0.0000000,  37.7945227, ]
lattice_lengths: [   5.95264,    5.95264,   37.79452, ]
lattice_angles: [ 90.000,  90.000, 120.000, ] # degrees, (23, 13, 12)
lattice_volume:   1.1597873E+03
convergence: {deltae:  0.000E+00, res2:  0.000E+00, residm:  9.981E-13, diffor:  0.000E+00, }
etotal    :  -9.23435497E+01
entropy   :   0.00000000E+00
fermie    :  -7.48922881E-02
cartesian_stress_tensor: null
pressure_GPa: null
xred      :
- [  3.3333E-01,   6.6667E-01,   0.0000E+00, Mo]
- [  6.6667E-01,   3.3333E-01,  -9.1944E-02,  S]
- [  6.6667E-01,   3.3333E-01,   9.1944E-02,  S]
cartesian_forces: null
force_length_stats: {min: null, max: null, mean: null, }
...

 Integrated electronic density in atomic spheres:
 ------------------------------------------------
 Atom  Sphere_radius  Integrated_density
    1        2.00000         10.42349198
    2        2.00000          3.79831482
    3        2.00000          3.79833192
================================================================================
 
 ----iterations are completed or convergence reached----
 
 Mean square residual over all n,k,spin=   59.655E-14; max=  99.810E-14
 reduced coordinates (array xred) for    3 atoms
       0.333333333333      0.666666666667      0.000000000000
       0.666666666667      0.333333333333     -0.091944235000
       0.666666666667      0.333333333333      0.091944235000
 
 cartesian coordinates (angstrom) at end:
    1      1.57500000000000     0.90932667396900     0.00000000000000
    2      1.57500000000000    -0.90932667396900    -1.83888470000000
    3      1.57500000000000    -0.90932667396900     1.83888470000000
 length scales=  5.952637318590  5.952637318590 37.794522657713 bohr
              =  3.150000000000  3.150000000000 20.000000000000 angstroms
 prteigrs : about to open file mos2o_DS2_EIG
 Eigenvalues (   eV  ) for nkpt=  68  k points:
 kpt#   1, nband=  8, wtk=  1.00000, kpt=  0.0000  0.0000  0.0000 (reduced coord)
 -62.34120  -36.44570  -36.13855  -36.13853  -14.92852  -14.29180   -6.53516   -3.84210
 kpt#   2, nband=  8, wtk=  1.00000, kpt=  0.0294  0.0000  0.0000 (reduced coord)
 -62.34090  -36.44512  -36.14186  -36.13934  -14.91610  -14.28343   -6.51796   -3.85233
 kpt#   3, nband=  8, wtk=  1.00000, kpt=  0.0588  0.0000  0.0000 (reduced coord)
 -62.33989  -36.44333  -36.15104  -36.14148  -14.87900  -14.25844   -6.46694   -3.88271
 kpt#   4, nband=  8, wtk=  1.00000, kpt=  0.0882  0.0000  0.0000 (reduced coord)
 -62.33826  -36.44059  -36.16585  -36.14495  -14.81779  -14.21722   -6.38387   -3.93249
 kpt#   5, nband=  8, wtk=  1.00000, kpt=  0.1176  0.0000  0.0000 (reduced coord)
 -62.33602  -36.43691  -36.18544  -36.14960  -14.73341  -14.16041   -6.27184   -4.00105
 kpt#   6, nband=  8, wtk=  1.00000, kpt=  0.1471  0.0000  0.0000 (reduced coord)
 -62.33342  -36.43277  -36.21047  -36.15539  -14.62720  -14.08895   -6.13567   -4.08869
 kpt#   7, nband=  8, wtk=  1.00000, kpt=  0.1765  0.0000  0.0000 (reduced coord)
 -62.33033  -36.42760  -36.23855  -36.16201  -14.50093  -14.00410   -5.98225   -4.19502
 kpt#   8, nband=  8, wtk=  1.00000, kpt=  0.2059  0.0000  0.0000 (reduced coord)
 -62.32703  -36.42225  -36.26990  -36.16931  -14.35692  -13.90754   -5.82179   -4.32855
 kpt#   9, nband=  8, wtk=  1.00000, kpt=  0.2353  0.0000  0.0000 (reduced coord)
 -62.32356  -36.41664  -36.30286  -36.17693  -14.19803  -13.80138   -5.67004   -4.48641
 kpt#  10, nband=  8, wtk=  1.00000, kpt=  0.2647  0.0000  0.0000 (reduced coord)
 -62.32000  -36.41081  -36.33598  -36.18479  -14.02782  -13.68823   -5.55510   -4.68182
 kpt#  11, nband=  8, wtk=  1.00000, kpt=  0.2941  0.0000  0.0000 (reduced coord)
 -62.31645  -36.40515  -36.36796  -36.19232  -13.85071  -13.57134   -5.53364   -4.89071
 kpt#  12, nband=  8, wtk=  1.00000, kpt=  0.3235  0.0000  0.0000 (reduced coord)
 -62.31309  -36.39961  -36.39828  -36.19961  -13.67214  -13.45455   -5.65925   -4.96816
 kpt#  13, nband=  8, wtk=  1.00000, kpt=  0.3529  0.0000  0.0000 (reduced coord)
 -62.31008  -36.42616  -36.39472  -36.20627  -13.49871  -13.34238   -5.88689   -5.34409
 kpt#  14, nband=  8, wtk=  1.00000, kpt=  0.3824  0.0000  0.0000 (reduced coord)
 -62.30747  -36.45027  -36.39045  -36.21213  -13.33818  -13.23988   -6.12543   -5.59116
 kpt#  15, nband=  8, wtk=  1.00000, kpt=  0.4118  0.0000  0.0000 (reduced coord)
 -62.30529  -36.46996  -36.38672  -36.21662  -13.19932  -13.15243   -6.33797   -5.77502
 kpt#  16, nband=  8, wtk=  1.00000, kpt=  0.4412  0.0000  0.0000 (reduced coord)
 -62.30372  -36.48454  -36.38403  -36.22019  -13.09133  -13.08523   -6.50367   -5.91500
 kpt#  17, nband=  8, wtk=  1.00000, kpt=  0.4706  0.0000  0.0000 (reduced coord)
 -62.30272  -36.49341  -36.38221  -36.22231  -13.04292  -13.02241   -6.60879   -6.00255
 kpt#  18, nband=  8, wtk=  1.00000, kpt=  0.5000  0.0000  0.0000 (reduced coord)
 -62.30235  -36.49620  -36.38154  -36.22286  -13.02842  -12.99873   -6.64481   -6.03232
 kpt#  19, nband=  8, wtk=  1.00000, kpt=  0.4833  0.0333  0.0000 (reduced coord)
 -62.30229  -36.49512  -36.38156  -36.22557  -13.02393  -12.99301   -6.62964   -6.02714
 kpt#  20, nband=  8, wtk=  1.00000, kpt=  0.4667  0.0667  0.0000 (reduced coord)
 -62.30205  -36.49148  -36.38120  -36.23342  -13.01075  -12.97617   -6.58443   -6.01213
 kpt#  21, nband=  8, wtk=  1.00000, kpt=  0.4500  0.1000  0.0000 (reduced coord)
 -62.30156  -36.48538  -36.38037  -36.24542  -12.98971  -12.94922   -6.51017   -5.98915
 kpt#  22, nband=  8, wtk=  1.00000, kpt=  0.4333  0.1333  0.0000 (reduced coord)
 -62.30089  -36.47695  -36.37937  -36.26104  -12.96226  -12.91386   -6.40846   -5.96140
 kpt#  23, nband=  8, wtk=  1.00000, kpt=  0.4167  0.1667  0.0000 (reduced coord)
 -62.30020  -36.46653  -36.37829  -36.28021  -12.93040  -12.87254   -6.28161   -5.93354
 kpt#  24, nband=  8, wtk=  1.00000, kpt=  0.4000  0.2000  0.0000 (reduced coord)
 -62.29946  -36.45413  -36.37716  -36.30147  -12.89670  -12.82841   -6.13276   -5.91112
 kpt#  25, nband=  8, wtk=  1.00000, kpt=  0.3833  0.2333  0.0000 (reduced coord)
 -62.29871  -36.44004  -36.37579  -36.32368  -12.86425  -12.78541   -5.96672   -5.89923
 kpt#  26, nband=  8, wtk=  1.00000, kpt=  0.3667  0.2667  0.0000 (reduced coord)
 -62.29807  -36.42453  -36.37476  -36.34571  -12.83655  -12.74816   -5.89946   -5.79260
 kpt#  27, nband=  8, wtk=  1.00000, kpt=  0.3500  0.3000  0.0000 (reduced coord)
 -62.29773  -36.40857  -36.37432  -36.36684  -12.81731  -12.72185   -5.90742   -5.63417
 kpt#  28, nband=  8, wtk=  1.00000, kpt=  0.3333  0.3333  0.0000 (reduced coord)
 -62.29757  -36.39757  -36.37946  -36.37409  -12.81015  -12.71190   -5.91289   -5.55978
 kpt#  29, nband=  8, wtk=  1.00000, kpt=  0.3500  0.3500  0.0250 (reduced coord)
 -62.29772  -36.40856  -36.37423  -36.36680  -12.81731  -12.72185   -5.90741   -5.63419
 kpt#  30, nband=  8, wtk=  1.00000, kpt=  0.3667  0.3667  0.0500 (reduced coord)
 -62.29807  -36.42450  -36.37477  -36.34568  -12.83655  -12.74816   -5.89946   -5.79260
 kpt#  31, nband=  8, wtk=  1.00000, kpt=  0.3833  0.3833  0.0750 (reduced coord)
 -62.29874  -36.44010  -36.37591  -36.32372  -12.86425  -12.78541   -5.96673   -5.89923
 kpt#  32, nband=  8, wtk=  1.00000, kpt=  0.4000  0.4000  0.1000 (reduced coord)
 -62.29945  -36.45413  -36.37704  -36.30142  -12.89670  -12.82841   -6.13276   -5.91112
 kpt#  33, nband=  8, wtk=  1.00000, kpt=  0.4167  0.4167  0.1250 (reduced coord)
 -62.30021  -36.46658  -36.37838  -36.28015  -12.93040  -12.87254   -6.28161   -5.93354
 kpt#  34, nband=  8, wtk=  1.00000, kpt=  0.4333  0.4333  0.1500 (reduced coord)
 -62.30091  -36.47699  -36.37952  -36.26105  -12.96226  -12.91386   -6.40846   -5.96142
 kpt#  35, nband=  8, wtk=  1.00000, kpt=  0.4500  0.4500  0.1750 (reduced coord)
 -62.30157  -36.48544  -36.38050  -36.24533  -12.98971  -12.94922   -6.51017   -5.98915
 kpt#  36, nband=  8, wtk=  1.00000, kpt=  0.4667  0.4667  0.2000 (reduced coord)
 -62.30202  -36.49145  -36.38109  -36.23331  -13.01075  -12.97616   -6.58443   -6.01213
 kpt#  37, nband=  8, wtk=  1.00000, kpt=  0.4833  0.4833  0.2250 (reduced coord)
 -62.30232  -36.49516  -36.38180  -36.22559  -13.02394  -12.99301   -6.62964   -6.02715
 kpt#  38, nband=  8, wtk=  1.00000, kpt=  0.5000  0.5000  0.2500 (reduced coord)
 -62.30247  -36.49648  -36.38214  -36.22320  -13.02843  -12.99873   -6.64482   -6.03236
 kpt#  39, nband=  8, wtk=  1.00000, kpt=  0.5167  0.5167  0.2750 (reduced coord)
 -62.30233  -36.49520  -36.38190  -36.22556  -13.02394  -12.99301   -6.62964   -6.02715
 kpt#  40, nband=  8, wtk=  1.00000, kpt=  0.5333  0.5333  0.3000 (reduced coord)
 -62.30205  -36.49154  -36.38132  -36.23331  -13.01075  -12.97617   -6.58443   -6.01213
 kpt#  41, nband=  8, wtk=  1.00000, kpt=  0.5500  0.5500  0.3250 (reduced coord)
 -62.30155  -36.48541  -36.38044  -36.24529  -12.98971  -12.94922   -6.51017   -5.98915
 kpt#  42, nband=  8, wtk=  1.00000, kpt=  0.5667  0.5667  0.3500 (reduced coord)
 -62.30091  -36.47696  -36.37946  -36.26109  -12.96226  -12.91386   -6.40846   -5.96141
 kpt#  43, nband=  8, wtk=  1.00000, kpt=  0.5833  0.5833  0.3750 (reduced coord)
 -62.30019  -36.46654  -36.37827  -36.28014  -12.93040  -12.87254   -6.28161   -5.93354
 kpt#  44, nband=  8, wtk=  1.00000, kpt=  0.6000  0.6000  0.4000 (reduced coord)
 -62.29941  -36.45405  -36.37684  -36.30130  -12.89670  -12.82841   -6.13276   -5.91112
 kpt#  45, nband=  8, wtk=  1.00000, kpt=  0.6167  0.6167  0.4250 (reduced coord)
 -62.29873  -36.44006  -36.37589  -36.32373  -12.86425  -12.78541   -5.96672   -5.89922
 kpt#  46, nband=  8, wtk=  1.00000, kpt=  0.6333  0.6333  0.4500 (reduced coord)
 -62.29815  -36.42473  -36.37497  -36.34604  -12.83655  -12.74816   -5.89947   -5.79262
 kpt#  47, nband=  8, wtk=  1.00000, kpt=  0.6500  0.6500  0.4750 (reduced coord)
 -62.29771  -36.40855  -36.37419  -36.36674  -12.81731  -12.72185   -5.90742   -5.63419
 kpt#  48, nband=  8, wtk=  1.00000, kpt=  0.6667  0.6667  0.5000 (reduced coord)
 -62.29751  -36.39743  -36.37932  -36.37372  -12.81014  -12.71189   -5.91288   -5.55981
 kpt#  49, nband=  8, wtk=  1.00000, kpt=  0.6833  0.6833  0.5250 (reduced coord)
 -62.29773  -36.40753  -36.37422  -36.36761  -12.81825  -12.72346   -5.90317   -5.62316
 kpt#  50, nband=  8, wtk=  1.00000, kpt=  0.7000  0.7000  0.5500 (reduced coord)
 -62.29831  -36.41971  -36.37526  -36.34949  -12.84399  -12.76073   -5.86670   -5.72985
 kpt#  51, nband=  8, wtk=  1.00000, kpt=  0.7167  0.7167  0.5750 (reduced coord)
 -62.29922  -36.42774  -36.37670  -36.33033  -12.88854  -12.82627   -5.80719   -5.79497
 kpt#  52, nband=  8, wtk=  1.00000, kpt=  0.7333  0.7333  0.6000 (reduced coord)
 -62.30059  -36.43105  -36.37907  -36.31107  -12.95178  -12.92045   -5.83347   -5.68323
 kpt#  53, nband=  8, wtk=  1.00000, kpt=  0.7500  0.7500  0.6250 (reduced coord)
 -62.30240  -36.42928  -36.38199  -36.29217  -13.04140  -13.03223   -5.80445   -5.53025
 kpt#  54, nband=  8, wtk=  1.00000, kpt=  0.7667  0.7667  0.6500 (reduced coord)
 -62.30468  -36.42233  -36.38569  -36.27397  -13.18515  -13.12748   -5.72358   -5.33845
 kpt#  55, nband=  8, wtk=  1.00000, kpt=  0.7833  0.7833  0.6750 (reduced coord)
 -62.30731  -36.41014  -36.38998  -36.25626  -13.34657  -13.23424   -5.60048   -5.11446
 kpt#  56, nband=  8, wtk=  1.00000, kpt=  0.8000  0.8000  0.7000 (reduced coord)
 -62.31027  -36.39477  -36.39305  -36.23953  -13.51981  -13.34890   -5.45662   -4.85351
 kpt#  57, nband=  8, wtk=  1.00000, kpt=  0.8167  0.8167  0.7250 (reduced coord)
 -62.31352  -36.40012  -36.37175  -36.22381  -13.69904  -13.46779   -5.34997   -4.83335
 kpt#  58, nband=  8, wtk=  1.00000, kpt=  0.8333  0.8333  0.7500 (reduced coord)
 -62.31692  -36.40571  -36.34671  -36.20909  -13.87880  -13.58740   -5.37270   -4.72488
 kpt#  59, nband=  8, wtk=  1.00000, kpt=  0.8500  0.8500  0.7750 (reduced coord)
 -62.32047  -36.41152  -36.31942  -36.19576  -14.05424  -13.70448   -5.49686   -4.49910
 kpt#  60, nband=  8, wtk=  1.00000, kpt=  0.8667  0.8667  0.8000 (reduced coord)
 -62.32402  -36.41744  -36.29059  -36.18368  -14.22116  -13.81618   -5.65817   -4.28153
 kpt#  61, nband=  8, wtk=  1.00000, kpt=  0.8833  0.8833  0.8250 (reduced coord)
 -62.32746  -36.42306  -36.26129  -36.17306  -14.37596  -13.92002   -5.82857   -4.24682
 kpt#  62, nband=  8, wtk=  1.00000, kpt=  0.9000  0.9000  0.8500 (reduced coord)
 -62.33072  -36.42845  -36.23303  -36.16379  -14.51567  -14.01390   -5.99457   -4.15386
 kpt#  63, nband=  8, wtk=  1.00000, kpt=  0.9167  0.9167  0.8750 (reduced coord)
 -62.33369  -36.43325  -36.20680  -36.15610  -14.63783  -14.09606   -6.14741   -4.06912
 kpt#  64, nband=  8, wtk=  1.00000, kpt=  0.9333  0.9333  0.9000 (reduced coord)
 -62.33626  -36.43743  -36.18346  -36.14992  -14.74040  -14.16511   -6.28060   -3.99247
 kpt#  65, nband=  8, wtk=  1.00000, kpt=  0.9500  0.9500  0.9250 (reduced coord)
 -62.33837  -36.44075  -36.16457  -36.14501  -14.82181  -14.21992   -6.38919   -3.92869
 kpt#  66, nband=  8, wtk=  1.00000, kpt=  0.9667  0.9667  0.9500 (reduced coord)
 -62.33997  -36.44354  -36.15053  -36.14159  -14.88081  -14.25966   -6.46941   -3.88119
 kpt#  67, nband=  8, wtk=  1.00000, kpt=  0.9833  0.9833  0.9750 (reduced coord)
 -62.34091  -36.44520  -36.14167  -36.13932  -14.91655  -14.28374   -6.51859   -3.85195
 kpt#  68, nband=  8, wtk=  1.00000, kpt=  1.0000  1.0000  1.0000 (reduced coord)
 -62.34120  -36.44570  -36.13855  -36.13853  -14.92852  -14.29180   -6.53516   -3.84207
 
== END DATASET(S) ==============================================================
================================================================================
  
 -outvars: echo values of variables after computation  --------
            acell      5.9526373186E+00  5.9526373186E+00  3.7794522658E+01 Bohr
              amu      9.59400000E+01  3.20660000E+01
      chksymbreak           0
             ecut      3.00000000E+01 Hartree
           enunit1          0
           enunit2          1
           etotal1    -9.2343549708E+01
            fcart1    -9.2507796928E-07 -6.9115148629E-07 -8.7608945754E-06
                       2.7790717980E-07  1.8150041254E-06  6.9218122615E-02
                       6.4717078948E-07 -1.1238526391E-06 -6.9209361720E-02
-          fftalg         512
           getden1          0
           getden2         -1
             iscf1          7
             iscf2         -2
           istwfk1       4    0    5    0    0    0    0    8    0    9
           istwfk2       2    0    0    0    0    0    0    0    0    0
                         0    0    0    0    0    0    0    3    0    0
                         0    0    0    0    0    0    0    0    0    0
                         0    0    0    0    0    0    0    0    0    0
                         0    0    0    0    0    0    0    0    0    0
                       outvar_i_n : Printing only first  50 k-points.
              ixc          11
           jdtset        1    2
              kpt1     0.00000000E+00  0.00000000E+00  5.00000000E-01
                       2.50000000E-01  0.00000000E+00  5.00000000E-01
                       5.00000000E-01  0.00000000E+00  5.00000000E-01
                       0.00000000E+00  2.50000000E-01  5.00000000E-01
                       2.50000000E-01  2.50000000E-01  5.00000000E-01
                       5.00000000E-01  2.50000000E-01  5.00000000E-01
                      -2.50000000E-01  2.50000000E-01  5.00000000E-01
                       0.00000000E+00  5.00000000E-01  5.00000000E-01
                       2.50000000E-01  5.00000000E-01  5.00000000E-01
                       5.00000000E-01  5.00000000E-01  5.00000000E-01
              kpt2     0.00000000E+00  0.00000000E+00  0.00000000E+00
                       2.94117647E-02  0.00000000E+00  0.00000000E+00
                       5.88235294E-02  0.00000000E+00  0.00000000E+00
                       8.82352941E-02  0.00000000E+00  0.00000000E+00
                       1.17647059E-01  0.00000000E+00  0.00000000E+00
                       1.47058824E-01  0.00000000E+00  0.00000000E+00
                       1.76470588E-01  0.00000000E+00  0.00000000E+00
                       2.05882353E-01  0.00000000E+00  0.00000000E+00
                       2.35294118E-01  0.00000000E+00  0.00000000E+00
                       2.64705882E-01  0.00000000E+00  0.00000000E+00
                       2.94117647E-01  0.00000000E+00  0.00000000E+00
                       3.23529412E-01  0.00000000E+00  0.00000000E+00
                       3.52941176E-01  0.00000000E+00  0.00000000E+00
                       3.82352941E-01  0.00000000E+00  0.00000000E+00
                       4.11764706E-01  0.00000000E+00  0.00000000E+00
                       4.41176471E-01  0.00000000E+00  0.00000000E+00
                       4.70588235E-01  0.00000000E+00  0.00000000E+00
                       5.00000000E-01  0.00000000E+00  0.00000000E+00
                       4.83333333E-01  3.33333333E-02  0.00000000E+00
                       4.66666667E-01  6.66666667E-02  0.00000000E+00
                       4.50000000E-01  1.00000000E-01  0.00000000E+00
                       4.33333333E-01  1.33333333E-01  0.00000000E+00
                       4.16666667E-01  1.66666667E-01  0.00000000E+00
                       4.00000000E-01  2.00000000E-01  0.00000000E+00
                       3.83333333E-01  2.33333333E-01  0.00000000E+00
                       3.66666667E-01  2.66666667E-01  0.00000000E+00
                       3.50000000E-01  3.00000000E-01  0.00000000E+00
                       3.33333333E-01  3.33333333E-01  0.00000000E+00
                       3.50000000E-01  3.50000000E-01  2.50000000E-02
                       3.66666667E-01  3.66666667E-01  5.00000000E-02
                       3.83333333E-01  3.83333333E-01  7.50000000E-02
                       4.00000000E-01  4.00000000E-01  1.00000000E-01
                       4.16666667E-01  4.16666667E-01  1.25000000E-01
                       4.33333333E-01  4.33333333E-01  1.50000000E-01
                       4.50000000E-01  4.50000000E-01  1.75000000E-01
                       4.66666667E-01  4.66666667E-01  2.00000000E-01
                       4.83333333E-01  4.83333333E-01  2.25000000E-01
                       5.00000000E-01  5.00000000E-01  2.50000000E-01
                       5.16666667E-01  5.16666667E-01  2.75000000E-01
                       5.33333333E-01  5.33333333E-01  3.00000000E-01
                       5.50000000E-01  5.50000000E-01  3.25000000E-01
                       5.66666667E-01  5.66666667E-01  3.50000000E-01
                       5.83333333E-01  5.83333333E-01  3.75000000E-01
                       6.00000000E-01  6.00000000E-01  4.00000000E-01
                       6.16666667E-01  6.16666667E-01  4.25000000E-01
                       6.33333333E-01  6.33333333E-01  4.50000000E-01
                       6.50000000E-01  6.50000000E-01  4.75000000E-01
                       6.66666667E-01  6.66666667E-01  5.00000000E-01
                       6.83333333E-01  6.83333333E-01  5.25000000E-01
                       7.00000000E-01  7.00000000E-01  5.50000000E-01
                       outvar_i_n : Printing only first  50 k-points.
           kptopt1          1
           kptopt2         -3
         kptrlatt        4    0    0      0    4    0      0    0    1
          kptrlen1     2.38105493E+01
          kptrlen2     3.00000000E+01
P           mkmem1         10
P           mkmem2         68
            natom           3
            nband1         14
            nband2          8
           nbdbuf1          0
           nbdbuf2          2
           ndtset           2
           ndivsm1          0
           ndivsm2         10
            ngfft          30      30     192
             nkpt1         10
             nkpt2         68
            nstep          20
             nsym           1
           ntypat           2
              occ      2.000000  2.000000  2.000000  2.000000  2.000000  2.000000
                       2.000000  2.000000  2.000000  2.000000  2.000000  2.000000
                       2.000000  0.000000
            rprim      5.0000000000E-01 -8.6602540378E-01  0.0000000000E+00
                       5.0000000000E-01  8.6602540378E-01  0.0000000000E+00
                       0.0000000000E+00  0.0000000000E+00  1.0000000000E+00
           shiftk1     0.00000000E+00  0.00000000E+00  5.00000000E-01
           shiftk2     5.00000000E-01  5.00000000E-01  5.00000000E-01
          spgroup           1
           strten1     9.1499299198E-05  9.1483746092E-05  4.1505964600E-04
                      -4.3905488224E-09 -1.6387540690E-09  1.0015133005E-08
           toldfe1     1.00000000E-07 Hartree
           toldfe2     0.00000000E+00 Hartree
           tolwfr1     0.00000000E+00
           tolwfr2     1.00000000E-12
            typat      1  2  2
              wtk1       0.06250    0.12500    0.06250    0.12500    0.12500    0.12500
                         0.12500    0.06250    0.12500    0.06250
              wtk2       1.00000    1.00000    1.00000    1.00000    1.00000    1.00000
                         1.00000    1.00000    1.00000    1.00000    1.00000    1.00000
                         1.00000    1.00000    1.00000    1.00000    1.00000    1.00000
                         1.00000    1.00000    1.00000    1.00000    1.00000    1.00000
                         1.00000    1.00000    1.00000    1.00000    1.00000    1.00000
                         1.00000    1.00000    1.00000    1.00000    1.00000    1.00000
                         1.00000    1.00000    1.00000    1.00000    1.00000    1.00000
                         1.00000    1.00000    1.00000    1.00000    1.00000    1.00000
                         1.00000    1.00000
                       outvars : Printing only first  50 k-points.
           xangst      1.5750000000E+00  9.0932667397E-01  0.0000000000E+00
                       1.5750000000E+00 -9.0932667397E-01 -1.8388847000E+00
                       1.5750000000E+00 -9.0932667397E-01  1.8388847000E+00
            xcart      2.9763186593E+00  1.7183783791E+00  0.0000000000E+00
                       2.9763186593E+00 -1.7183783791E+00 -3.4749884730E+00
                       2.9763186593E+00 -1.7183783791E+00  3.4749884730E+00
             xred      3.3333333333E-01  6.6666666667E-01  0.0000000000E+00
                       6.6666666667E-01  3.3333333333E-01 -9.1944235000E-02
                       6.6666666667E-01  3.3333333333E-01  9.1944235000E-02
            znucl       42.00000   16.00000
 
================================================================================


- Timing analysis has been suppressed with timopt=0



================================================================================

 Suggested references for the acknowledgment of ABINIT usage.

 The users of ABINIT have little formal obligations with respect to the ABINIT group
 (those specified in the GNU General Public License, http://www.gnu.org/copyleft/gpl.txt).
 However, it is common practice in the scientific literature,
 to acknowledge the efforts of people that have made the research possible.
 In this spirit, please find below suggested citations of work written by ABINIT developers,
 corresponding to implementations inside of ABINIT that you have used in the present run.
 Note also that it will be of great value to readers of publications presenting these results,
 to read papers enabling them to understand the theoretical formalism and details
 of the ABINIT implementation.
 For information on why they are suggested, see also https://docs.abinit.org/theory/acknowledgments.
-
- [1] The Abinit project: Impact, environment and recent developments.
- Computer Phys. Comm. 248, 107042 (2020).
- X.Gonze, B. Amadon, G. Antonius, F.Arnardi, L.Baguet, J.-M.Beuken,
- J.Bieder, F.Bottin, J.Bouchet, E.Bousquet, N.Brouwer, F.Bruneval,
- G.Brunin, T.Cavignac, J.-B. Charraud, Wei Chen, M.Cote, S.Cottenier,
- J.Denier, G.Geneste, Ph.Ghosez, M.Giantomassi, Y.Gillet, O.Gingras,
- D.R.Hamann, G.Hautier, Xu He, N.Helbig, N.Holzwarth, Y.Jia, F.Jollet,
- W.Lafargue-Dit-Hauret, K.Lejaeghere, M.A.L.Marques, A.Martin, C.Martins,
- H.P.C. Miranda, F.Naccarato, K. Persson, G.Petretto, V.Planes, Y.Pouillon,
- S.Prokhorenko, F.Ricci, G.-M.Rignanese, A.H.Romero, M.M.Schmitt, M.Torrent,
- M.J.van Setten, B.Van Troeye, M.J.Verstraete, G.Zerah and J.W.Zwanzig
- Comment: the fifth generic paper describing the ABINIT project.
- Note that a version of this paper, that is not formatted for Computer Phys. Comm. 
- is available at https://www.abinit.org/sites/default/files/ABINIT20.pdf .
- The licence allows the authors to put it on the Web.
- DOI and bibtex: see https://docs.abinit.org/theory/bibliography/#gonze2020
-
- [2] Optimized norm-conserving Vanderbilt pseudopotentials.
- D.R. Hamann, Phys. Rev. B 88, 085117 (2013).
- Comment: Some pseudopotential generated using the ONCVPSP code were used.
- DOI and bibtex: see https://docs.abinit.org/theory/bibliography/#hamann2013
-
- [3] ABINIT: Overview, and focus on selected capabilities
- J. Chem. Phys. 152, 124102 (2020).
- A. Romero, D.C. Allan, B. Amadon, G. Antonius, T. Applencourt, L.Baguet,
- J.Bieder, F.Bottin, J.Bouchet, E.Bousquet, F.Bruneval,
- G.Brunin, D.Caliste, M.Cote,
- J.Denier, C. Dreyer, Ph.Ghosez, M.Giantomassi, Y.Gillet, O.Gingras,
- D.R.Hamann, G.Hautier, F.Jollet, G. Jomard,
- A.Martin, 
- H.P.C. Miranda, F.Naccarato, G.Petretto, N.A. Pike, V.Planes,
- S.Prokhorenko, T. Rangel, F.Ricci, G.-M.Rignanese, M.Royo, M.Stengel, M.Torrent,
- M.J.van Setten, B.Van Troeye, M.J.Verstraete, J.Wiktor, J.W.Zwanziger, and X.Gonze.
- Comment: a global overview of ABINIT, with focus on selected capabilities .
- Note that a version of this paper, that is not formatted for J. Chem. Phys 
- is available at https://www.abinit.org/sites/default/files/ABINIT20_JPC.pdf .
- The licence allows the authors to put it on the Web.
- DOI and bibtex: see https://docs.abinit.org/theory/bibliography/#romero2020
-
- [4] Recent developments in the ABINIT software package.
- Computer Phys. Comm. 205, 106 (2016).
- X.Gonze, F.Jollet, F.Abreu Araujo, D.Adams, B.Amadon, T.Applencourt,
- C.Audouze, J.-M.Beuken, J.Bieder, A.Bokhanchuk, E.Bousquet, F.Bruneval
- D.Caliste, M.Cote, F.Dahm, F.Da Pieve, M.Delaveau, M.Di Gennaro,
- B.Dorado, C.Espejo, G.Geneste, L.Genovese, A.Gerossier, M.Giantomassi,
- Y.Gillet, D.R.Hamann, L.He, G.Jomard, J.Laflamme Janssen, S.Le Roux,
- A.Levitt, A.Lherbier, F.Liu, I.Lukacevic, A.Martin, C.Martins,
- M.J.T.Oliveira, S.Ponce, Y.Pouillon, T.Rangel, G.-M.Rignanese,
- A.H.Romero, B.Rousseau, O.Rubel, A.A.Shukri, M.Stankovski, M.Torrent,
- M.J.Van Setten, B.Van Troeye, M.J.Verstraete, D.Waroquier, J.Wiktor,
- B.Xu, A.Zhou, J.W.Zwanziger.
- Comment: the fourth generic paper describing the ABINIT project.
- Note that a version of this paper, that is not formatted for Computer Phys. Comm. 
- is available at https://www.abinit.org/sites/default/files/ABINIT16.pdf .
- The licence allows the authors to put it on the Web.
- DOI and bibtex: see https://docs.abinit.org/theory/bibliography/#gonze2016
-
- And optionally:
-
- [5] ABINIT: First-principles approach of materials and nanosystem properties.
- Computer Phys. Comm. 180, 2582-2615 (2009).
- X. Gonze, B. Amadon, P.-M. Anglade, J.-M. Beuken, F. Bottin, P. Boulanger, F. Bruneval,
- D. Caliste, R. Caracas, M. Cote, T. Deutsch, L. Genovese, Ph. Ghosez, M. Giantomassi
- S. Goedecker, D.R. Hamann, P. Hermet, F. Jollet, G. Jomard, S. Leroux, M. Mancini, S. Mazevet,
- M.J.T. Oliveira, G. Onida, Y. Pouillon, T. Rangel, G.-M. Rignanese, D. Sangalli, R. Shaltaf,
- M. Torrent, M.J. Verstraete, G. Zerah, J.W. Zwanziger
- Comment: the third generic paper describing the ABINIT project.
- Note that a version of this paper, that is not formatted for Computer Phys. Comm. 
- is available at https://www.abinit.org/sites/default/files/ABINIT_CPC_v10.pdf .
- The licence allows the authors to put it on the Web.
- DOI and bibtex: see https://docs.abinit.org/theory/bibliography/#gonze2009
-
- Proc.   0 individual time (sec): cpu=        110.7  wall=        112.4
 
================================================================================
 
 Calculation completed.
.Delivered   4 WARNINGs and  10 COMMENTs to log file.
+Overall time at end (sec) : cpu=        110.7  wall=        112.4
