
.Version 9.10.3 of ABINIT 
.(MPI version, prepared for a x86_64_linux_intel2021.6 computer) 

.Copyright (C) 1998-2022 ABINIT group . 
 ABINIT comes with ABSOLUTELY NO WARRANTY.
 It is free software, and you are welcome to redistribute it
 under certain conditions (GNU General Public License,
 see ~abinit/COPYING or http://www.gnu.org/copyleft/gpl.txt).

 ABINIT is a project of the Universite Catholique de Louvain,
 Corning Inc. and other collaborators, see ~abinit/doc/developers/contributors.txt .
 Please read https://docs.abinit.org/theory/acknowledgments for suggested
 acknowledgments of the ABINIT effort.
 For more information, see https://www.abinit.org .

.Starting date : Tue  6 May 2025.
- ( at 15h29 )
  
- input  file    -> mos2.abi
- output file    -> mos2.abo
- root for input  files -> mos2i
- root for output files -> mos2o
 
 
 DATASET    1 : space group P1 (#  1); Bravais aP (primitive triclinic)
================================================================================
 Values of the parameters that define the memory need for DATASET  1.
     intxc =       0    ionmov =       0      iscf =       7    lmnmax =       6
     lnmax =       6     mgfft =     120  mpssoang =       3    mqgrid =    5894
     natom =       3  nloc_mem =       1    nspden =       1   nspinor =       1
    nsppol =       1      nsym =       1    n1xccc =    2501    ntypat =       2
    occopt =       1   xclevel =       2
-    mband =          14        mffmem =           1         mkmem =           2
       mpw =        2310          nfft =       48000          nkpt =           2
================================================================================
P This job should need less than                      17.285 Mbytes of memory.
  Rough estimation (10% accuracy) of disk space for files :
_ WF disk file :      0.989 Mbytes ; DEN or POT disk file :      0.368 Mbytes.
================================================================================
 
 
 DATASET    2 : space group P1 (#  1); Bravais aP (primitive triclinic)
================================================================================
 Values of the parameters that define the memory need for DATASET  2.
     intxc =       0    ionmov =       0      iscf =      -2    lmnmax =       6
     lnmax =       6     mgfft =     120  mpssoang =       3    mqgrid =    5894
     natom =       3  nloc_mem =       1    nspden =       1   nspinor =       1
    nsppol =       1      nsym =       1    n1xccc =    2501    ntypat =       2
    occopt =       1   xclevel =       2
-    mband =           4        mffmem =           1         mkmem =          39
       mpw =        2328          nfft =       48000          nkpt =          39
================================================================================
P This job should need less than                      16.988 Mbytes of memory.
  Rough estimation (10% accuracy) of disk space for files :
_ WF disk file :      5.544 Mbytes ; DEN or POT disk file :      0.368 Mbytes.
================================================================================
 
--------------------------------------------------------------------------------
------------- Echo of variables that govern the present computation ------------
--------------------------------------------------------------------------------
-
- outvars: echo of selected default values                                      
-   iomode0 =  0 , fftalg0 =512 , wfoptalg0 =  0
-
- outvars: echo of global parameters not present in the input file              
-  max_nthreads =    0
-
 -outvars: echo values of preprocessed input variables --------
            acell      5.9526373186E+00  5.9526373186E+00  3.7794522658E+01 Bohr
              amu      9.59400000E+01  3.20660000E+01
      chksymbreak           0
             ecut      1.20000000E+01 Hartree
           enunit1          0
           enunit2          1
-          fftalg         512
           getden1          0
           getden2         -1
             iscf1          7
             iscf2         -2
           istwfk1       2    0
           istwfk2       2    0    0    0    0    0    0    0    0    0
                         0    0    0    0    0    0    0    0    0    0
                         0    0    0    0    0    0    0    0    0    0
                         0    0    0    0    0    0    0    0    2
              ixc          11
           jdtset        1    2
              kpt1     0.00000000E+00  0.00000000E+00  0.00000000E+00
                       3.33333333E-01  0.00000000E+00  0.00000000E+00
              kpt2     0.00000000E+00  0.00000000E+00  0.00000000E+00
                       3.92156882E-02  0.00000000E+00  0.00000000E+00
                       7.84313765E-02  0.00000000E+00  0.00000000E+00
                       1.17647065E-01  0.00000000E+00  0.00000000E+00
                       1.56862753E-01  0.00000000E+00  0.00000000E+00
                       1.96078441E-01  0.00000000E+00  0.00000000E+00
                       2.35294129E-01  0.00000000E+00  0.00000000E+00
                       2.74509818E-01  0.00000000E+00  0.00000000E+00
                       3.13725506E-01  0.00000000E+00  0.00000000E+00
                       3.52941194E-01  0.00000000E+00  0.00000000E+00
                       3.92156882E-01  0.00000000E+00  0.00000000E+00
                       4.31372571E-01  0.00000000E+00  0.00000000E+00
                       4.70588259E-01  0.00000000E+00  0.00000000E+00
                       5.09803947E-01  0.00000000E+00  0.00000000E+00
                       5.49019635E-01  0.00000000E+00  0.00000000E+00
                       5.88235324E-01  0.00000000E+00  0.00000000E+00
                       6.27451012E-01  0.00000000E+00  0.00000000E+00
                       6.66666700E-01  0.00000000E+00  0.00000000E+00
                       6.50000030E-01 -2.88675130E-02  0.00000000E+00
                       6.33333360E-01 -5.77350260E-02  0.00000000E+00
                       6.16666690E-01 -8.66025390E-02  0.00000000E+00
                       6.00000020E-01 -1.15470052E-01  0.00000000E+00
                       5.83333350E-01 -1.44337565E-01  0.00000000E+00
                       5.66666680E-01 -1.73205078E-01  0.00000000E+00
                       5.50000010E-01 -2.02072591E-01  0.00000000E+00
                       5.33333340E-01 -2.30940104E-01  0.00000000E+00
                       5.16666670E-01 -2.59807617E-01  0.00000000E+00
                       5.00000000E-01 -2.88675130E-01  0.00000000E+00
                       4.54545455E-01 -2.62431936E-01  0.00000000E+00
                       4.09090909E-01 -2.36188743E-01  0.00000000E+00
                       3.63636364E-01 -2.09945549E-01  0.00000000E+00
                       3.18181818E-01 -1.83702355E-01  0.00000000E+00
                       2.72727273E-01 -1.57459162E-01  0.00000000E+00
                       2.27272727E-01 -1.31215968E-01  0.00000000E+00
                       1.81818182E-01 -1.04972775E-01  0.00000000E+00
                       1.36363636E-01 -7.87295809E-02  0.00000000E+00
                       9.09090909E-02 -5.24863873E-02  0.00000000E+00
                       4.54545455E-02 -2.62431936E-02  0.00000000E+00
                       0.00000000E+00  0.00000000E+00  0.00000000E+00
           kptopt1          1
           kptopt2         -3
         kptrlatt        3    0    0      0    1    0      0    0    1
          kptrlen1     5.95263732E+00
          kptrlen2     3.00000000E+01
P           mkmem1          2
P           mkmem2         39
            natom           3
            nband1         14
            nband2          4
           nbdbuf1          0
           nbdbuf2          2
           ndtset           2
           ndivsm1          0
           ndivsm2         10
            ngfft          20      20     120
             nkpt1          2
             nkpt2         39
            nstep          10
             nsym           1
           ntypat           2
              occ      2.000000  2.000000  2.000000  2.000000  2.000000  2.000000
                       2.000000  2.000000  2.000000  2.000000  2.000000  2.000000
                       2.000000  0.000000
            rprim      5.0000000000E-01 -8.6602540378E-01  0.0000000000E+00
                       5.0000000000E-01  8.6602540378E-01  0.0000000000E+00
                       0.0000000000E+00  0.0000000000E+00  1.0000000000E+00
           shiftk1     0.00000000E+00  0.00000000E+00  0.00000000E+00
           shiftk2     5.00000000E-01  5.00000000E-01  5.00000000E-01
          spgroup           1
           toldfe1     1.00000000E-06 Hartree
           toldfe2     0.00000000E+00 Hartree
           tolwfr1     0.00000000E+00
           tolwfr2     1.00000000E-12
            typat      1  2  2
              wtk1       0.33333    0.66667
              wtk2       1.00000    1.00000    1.00000    1.00000    1.00000    1.00000
                         1.00000    1.00000    1.00000    1.00000    1.00000    1.00000
                         1.00000    1.00000    1.00000    1.00000    1.00000    1.00000
                         1.00000    1.00000    1.00000    1.00000    1.00000    1.00000
                         1.00000    1.00000    1.00000    1.00000    1.00000    1.00000
                         1.00000    1.00000    1.00000    1.00000    1.00000    1.00000
                         1.00000    1.00000    1.00000
           xangst      1.5750000000E+00  9.0932667397E-01  0.0000000000E+00
                       1.5750000000E+00 -9.0932667397E-01 -1.8388847000E+00
                       1.5750000000E+00 -9.0932667397E-01  1.8388847000E+00
            xcart      2.9763186593E+00  1.7183783791E+00  0.0000000000E+00
                       2.9763186593E+00 -1.7183783791E+00 -3.4749884730E+00
                       2.9763186593E+00 -1.7183783791E+00  3.4749884730E+00
             xred      3.3333333333E-01  6.6666666667E-01  0.0000000000E+00
                       6.6666666667E-01  3.3333333333E-01 -9.1944235000E-02
                       6.6666666667E-01  3.3333333333E-01  9.1944235000E-02
            znucl       42.00000   16.00000
 
================================================================================
 
 chkinp: Checking input parameters for consistency, jdtset=   1.
 
 chkinp: Checking input parameters for consistency, jdtset=   2.
 
================================================================================
== DATASET  1 ==================================================================
-   mpi_nproc: 1, omp_nthreads: -1 (-1 if OMP is not activated)
 

--- !DatasetInfo
iteration_state: {dtset: 1, }
dimensions: {natom: 3, nkpt: 2, mband: 14, nsppol: 1, nspinor: 1, nspden: 1, mpw: 2310, }
cutoff_energies: {ecut:  12.0, pawecutdg:  -1.0, }
electrons: {nelect:   2.60000000E+01, charge:   0.00000000E+00, occopt:   1.00000000E+00, tsmear:   1.00000000E-02, }
meta: {optdriver: 0, ionmov: 0, optcell: 0, iscf: 7, paral_kgb: 0, }
...

 Exchange-correlation functional for the present dataset will be:
  GGA: Perdew-Burke-Ernzerhof functional - ixc=11
 Citation for XC functional:
  J.P.Perdew, K.Burke, M.Ernzerhof, PRL 77, 3865 (1996)
 
 Real(R)+Recip(G) space primitive vectors, cartesian coordinates (Bohr,Bohr^-1):
 R(1)=  2.9763187 -5.1551351  0.0000000  G(1)=  0.1679928 -0.0969907  0.0000000
 R(2)=  2.9763187  5.1551351  0.0000000  G(2)=  0.1679928  0.0969907  0.0000000
 R(3)=  0.0000000  0.0000000 37.7945227  G(3)=  0.0000000  0.0000000  0.0264589
 Unit cell volume ucvol=  1.1597873E+03 bohr^3
 Angles (23,13,12)=  9.00000000E+01  9.00000000E+01  1.20000000E+02 degrees
 
 getcut: wavevector=  0.0000  0.0000  0.0000  ngfft=  20  20 120
         ecut(hartree)=     12.000   => boxcut(ratio)=   2.03609
 
--- Pseudopotential description ------------------------------------------------
- pspini: atom type   1  psp file is ./persudo/Mo.psp8
- pspatm: opening atomic psp file    ./persudo/Mo.psp8
- Mo    ONCVPSP-3.2.3.1  r_core=   1.45541   1.45541   1.35488
- 42.00000  14.00000    170510                znucl, zion, pspdat
    8   11    2    4       600   0.00000      pspcod,pspxc,lmax,lloc,mmax,r2well
    5.99000000000000    3.00000000000000    0.00000000000000   rchrg,fchrg,qchrg
     nproj     2     2     2
     extension_switch     1
  pspatm : epsatm=   15.95693586
         --- l  ekb(1:nproj) -->
             0   13.833287    1.350687
             1    8.015347    1.134034
             2    2.765699    0.969071
 pspatm: atomic psp has been read  and splines computed
 
- pspini: atom type   2  psp file is ./persudo/S.psp8
- pspatm: opening atomic psp file    ./persudo/S.psp8
- S     ONCVPSP-4.0.1  r_core=   1.45687   1.45687   1.45687
- 16.00000   6.00000    220131                znucl, zion, pspdat
    8   11    2    4       600   0.00000      pspcod,pspxc,lmax,lloc,mmax,r2well
    5.99000000000000    6.00000000000000    0.00000000000000   rchrg,fchrg,qchrg
     nproj     2     2     2
     extension_switch     1
  pspatm : epsatm=    9.04179351
         --- l  ekb(1:nproj) -->
             0    6.774234    0.542270
             1    3.022426    0.737017
             2   -5.033160   -1.531047
 pspatm: atomic psp has been read  and splines computed
 
   8.85053595E+02                                ecore*ucvol(ha*bohr**3)
--------------------------------------------------------------------------------
 
_setup2: Arith. and geom. avg. npw (full set) are    2315.667    2315.653
 
================================================================================

--- !BeginCycle
iteration_state: {dtset: 1, }
solver: {iscf: 7, nstep: 10, nline: 4, wfoptalg: 0, }
tolerances: {toldfe: 1.00E-06, }
...
 
     iter   Etot(hartree)      deltaE(h)  residm     vres2
 ETOT  1  -90.319512161780    -9.032E+01 5.713E-02 1.383E+04
 ETOT  2  -85.471212285142     4.848E+00 7.930E-03 2.895E+04
 ETOT  3  -91.694414720948    -6.223E+00 4.579E-02 2.836E+02
 ETOT  4  -91.748226875655    -5.381E-02 2.051E-03 5.455E+01
 ETOT  5  -91.749035376791    -8.085E-04 5.269E-04 4.908E+01
 ETOT  6  -91.751488542873    -2.453E-03 5.252E-04 1.813E+01
 ETOT  7  -91.752111061671    -6.225E-04 2.465E-04 7.951E+00
 ETOT  8  -91.752197449180    -8.639E-05 2.689E-04 5.946E+00
 ETOT  9  -91.752240881417    -4.343E-05 1.345E-04 4.458E+00
 ETOT 10  -91.752283410453    -4.253E-05 1.287E-04 3.069E+00
 
 Cartesian components of stress tensor (hartree/bohr^3)
  sigma(1 1)=  6.74511131E-04  sigma(3 2)=  5.83279251E-08
  sigma(2 2)=  5.76651759E-04  sigma(3 1)=  3.40441120E-08
  sigma(3 3)=  1.17968232E-03  sigma(2 1)= -8.47801429E-05
 
 
 scprqt:  WARNING -
  nstep=   10 was not enough SCF cycles to converge;
  maximum energy difference=  4.253E-05 exceeds toldfe=  1.000E-06
 

--- !ResultsGS
iteration_state: {dtset: 1, }
comment   : Summary of ground state results
lattice_vectors:
- [  2.9763187,  -5.1551351,   0.0000000, ]
- [  2.9763187,   5.1551351,   0.0000000, ]
- [  0.0000000,   0.0000000,  37.7945227, ]
lattice_lengths: [   5.95264,    5.95264,   37.79452, ]
lattice_angles: [ 90.000,  90.000, 120.000, ] # degrees, (23, 13, 12)
lattice_volume:   1.1597873E+03
convergence: {deltae: -4.253E-05, res2:  3.069E+00, residm:  1.287E-04, diffor: null, }
etotal    :  -9.17522834E+01
entropy   :   0.00000000E+00
fermie    :  -7.78371054E-02
cartesian_stress_tensor: # hartree/bohr^3
- [  6.74511131E-04,  -8.47801429E-05,   3.40441120E-08, ]
- [ -8.47801429E-05,   5.76651759E-04,   5.83279251E-08, ]
- [  3.40441120E-08,   5.83279251E-08,   1.17968232E-03, ]
pressure_GPa:  -2.3839E+01
xred      :
- [  3.3333E-01,   6.6667E-01,   0.0000E+00, Mo]
- [  6.6667E-01,   3.3333E-01,  -9.1944E-02,  S]
- [  6.6667E-01,   3.3333E-01,   9.1944E-02,  S]
cartesian_forces: # hartree/bohr
- [ -1.47955932E-02,   8.53305534E-03,  -1.61455289E-04, ]
- [  7.39892404E-03,  -4.26186283E-03,   7.77655067E-02, ]
- [  7.39666911E-03,  -4.27119251E-03,  -7.76040515E-02, ]
force_length_stats: {min:   1.70806522E-02, max:   7.82328677E-02, mean:   5.77953983E-02, }
...

 Integrated electronic density in atomic spheres:
 ------------------------------------------------
 Atom  Sphere_radius  Integrated_density
    1        2.00000         10.44089670
    2        2.00000          3.84521671
    3        2.00000          3.84512670
================================================================================
 
 ----iterations are completed or convergence reached----
 
 Mean square residual over all n,k,spin=   46.357E-07; max=  12.868E-05
 reduced coordinates (array xred) for    3 atoms
       0.333333333333      0.666666666667      0.000000000000
       0.666666666667      0.333333333333     -0.091944235000
       0.666666666667      0.333333333333      0.091944235000
 rms dE/dt=  1.3845E+00; max dE/dt=  2.9323E+00; dE/dt below (all hartree)
    1       0.088078649606      0.000004037176      0.005406382785
    2      -0.043938838312     -0.000094386239     -2.939805949478
    3      -0.043980222673     -0.000039579101      2.932312338360
 
 cartesian coordinates (angstrom) at end:
    1      1.57500000000000     0.90932667396900     0.00000000000000
    2      1.57500000000000    -0.90932667396900    -1.83888470000000
    3      1.57500000000000    -0.90932667396900     1.83888470000000
 
 cartesian forces (hartree/bohr) at end:
    1     -0.01479559315470     0.00853305534094    -0.00016145528859
    2      0.00739892404212    -0.00426186283164     0.07776550674601
    3      0.00739666911258    -0.00427119250930    -0.07760405145742
 frms,max,avg= 3.7278938E-02 7.7765507E-02  -1.661E-06  9.360E-06  1.841E-05 h/b
 
 cartesian forces (eV/Angstrom) at end:
    1     -0.76081992616749     0.43878731096469    -0.00830236405256
    2      0.38046793964860    -0.21915377984508     3.99886280206889
    3      0.38035198651889    -0.21963353111961    -3.99056043801632
 frms,max,avg= 1.9169599E+00 3.9988628E+00  -8.541E-05  4.813E-04  9.466E-04 e/A
 length scales=  5.952637318590  5.952637318590 37.794522657713 bohr
              =  3.150000000000  3.150000000000 20.000000000000 angstroms
 prteigrs : about to open file mos2o_DS1_EIG
 Fermi (or HOMO) energy (hartree) =  -0.07784   Average Vxc (hartree)=  -0.15626
 Eigenvalues (hartree) for nkpt=   2  k points:
 kpt#   1, nband= 14, wtk=  0.33333, kpt=  0.0000  0.0000  0.0000 (reduced coord)
  -2.23028   -1.36890   -1.36587   -1.34515   -0.56864   -0.54808   -0.24776   -0.15971
  -0.11420   -0.11133   -0.09281   -0.08442   -0.07784    0.01744
 prteigrs : prtvol=0 or 1, do not print more k-points.
 

--- !EnergyTerms
iteration_state     : {dtset: 1, }
comment             : Components of total free energy in Hartree
kinetic             :  2.90582931678298E+01
hartree             :  2.65698600781413E+02
xc                  : -1.64037245690238E+01
Ewald energy        :  1.89573206011761E+02
psp_core            :  7.63117176066322E-01
local_psp           : -5.72427456094783E+02
non_local_psp       :  1.19856801162842E+01
total_energy        : -9.17522834104531E+01
total_energy_eV     : -2.49670660391335E+03
band_energy         : -1.68165986140848E+01
...

 
 Cartesian components of stress tensor (hartree/bohr^3)
  sigma(1 1)=  6.74511131E-04  sigma(3 2)=  5.83279251E-08
  sigma(2 2)=  5.76651759E-04  sigma(3 1)=  3.40441120E-08
  sigma(3 3)=  1.17968232E-03  sigma(2 1)= -8.47801429E-05
 
-Cartesian components of stress tensor (GPa)         [Pressure= -2.3839E+01 GPa]
- sigma(1 1)=  1.98447993E+01  sigma(3 2)=  1.71606651E-03
- sigma(2 2)=  1.69656776E+01  sigma(3 1)=  1.00161219E-03
- sigma(3 3)=  3.47074464E+01  sigma(2 1)= -2.49431750E+00
 
================================================================================
== DATASET  2 ==================================================================
-   mpi_nproc: 1, omp_nthreads: -1 (-1 if OMP is not activated)
 

--- !DatasetInfo
iteration_state: {dtset: 2, }
dimensions: {natom: 3, nkpt: 39, mband: 4, nsppol: 1, nspinor: 1, nspden: 1, mpw: 2328, }
cutoff_energies: {ecut:  12.0, pawecutdg:  -1.0, }
electrons: {nelect:   2.60000000E+01, charge:   0.00000000E+00, occopt:   1.00000000E+00, tsmear:   1.00000000E-02, }
meta: {optdriver: 0, ionmov: 0, optcell: 0, iscf: -2, paral_kgb: 0, }
...

 mkfilename : getden/=0, take file _DEN from output of DATASET   1.
 
 Exchange-correlation functional for the present dataset will be:
  GGA: Perdew-Burke-Ernzerhof functional - ixc=11
 Citation for XC functional:
  J.P.Perdew, K.Burke, M.Ernzerhof, PRL 77, 3865 (1996)
 
 Real(R)+Recip(G) space primitive vectors, cartesian coordinates (Bohr,Bohr^-1):
 R(1)=  2.9763187 -5.1551351  0.0000000  G(1)=  0.1679928 -0.0969907  0.0000000
 R(2)=  2.9763187  5.1551351  0.0000000  G(2)=  0.1679928  0.0969907  0.0000000
 R(3)=  0.0000000  0.0000000 37.7945227  G(3)=  0.0000000  0.0000000  0.0264589
 Unit cell volume ucvol=  1.1597873E+03 bohr^3
 Angles (23,13,12)=  9.00000000E+01  9.00000000E+01  1.20000000E+02 degrees
 
 getcut: wavevector=  0.0000  0.0000  0.0000  ngfft=  20  20 120
         ecut(hartree)=     12.000   => boxcut(ratio)=   2.03609
--------------------------------------------------------------------------------
 
 
================================================================================
 prteigrs : about to open file mos2o_DS2_EIG
 Non-SCF case, kpt    1 (  0.00000  0.00000  0.00000), residuals and eigenvalues=
  5.56E-13  5.95E-13  7.33E-13  4.94E-13
 -2.2160E+00 -1.3546E+00 -1.3518E+00 -1.3309E+00
 Non-SCF case, kpt    2 (  0.03922  0.00000  0.00000), residuals and eigenvalues=
  5.57E-13  6.18E-13  6.51E-13  4.46E-13
 -2.2143E+00 -1.3548E+00 -1.3518E+00 -1.3309E+00
 Non-SCF case, kpt    3 (  0.07843  0.00000  0.00000), residuals and eigenvalues=
  1.86E-13  2.19E-13  7.63E-13  4.68E-13
 -2.2145E+00 -1.3554E+00 -1.3517E+00 -1.3311E+00
 Non-SCF case, kpt    4 (  0.11765  0.00000  0.00000), residuals and eigenvalues=
  5.02E-13  2.07E-13  9.89E-13  5.89E-13
 -2.2156E+00 -1.3563E+00 -1.3515E+00 -1.3313E+00
 Non-SCF case, kpt    5 (  0.15686  0.00000  0.00000), residuals and eigenvalues=
  4.55E-13  3.08E-13  5.94E-13  3.78E-12
 -2.2159E+00 -1.3575E+00 -1.3513E+00 -1.3316E+00
 Non-SCF case, kpt    6 (  0.19608  0.00000  0.00000), residuals and eigenvalues=
  9.09E-13  4.34E-13  6.37E-13  6.99E-13
 -2.2142E+00 -1.3590E+00 -1.3510E+00 -1.3320E+00
 Non-SCF case, kpt    7 (  0.23529  0.00000  0.00000), residuals and eigenvalues=
  7.03E-13  4.71E-13  5.44E-13  4.95E-13
 -2.2141E+00 -1.3605E+00 -1.3507E+00 -1.3324E+00
 Non-SCF case, kpt    8 (  0.27451  0.00000  0.00000), residuals and eigenvalues=
  4.10E-13  3.00E-13  4.69E-13  3.31E-13
 -2.2129E+00 -1.3621E+00 -1.3504E+00 -1.3328E+00
 Non-SCF case, kpt    9 (  0.31373  0.00000  0.00000), residuals and eigenvalues=
  7.20E-13  3.22E-13  5.69E-13  5.01E-13
 -2.2121E+00 -1.3637E+00 -1.3502E+00 -1.3332E+00
 Non-SCF case, kpt   10 (  0.35294  0.00000  0.00000), residuals and eigenvalues=
  4.75E-13  5.39E-13  2.39E-13  6.79E-13
 -2.2124E+00 -1.3651E+00 -1.3499E+00 -1.3335E+00
 Non-SCF case, kpt   11 (  0.39216  0.00000  0.00000), residuals and eigenvalues=
  2.51E-13  3.44E-13  3.24E-13  2.90E-13
 -2.2109E+00 -1.3662E+00 -1.3497E+00 -1.3338E+00
 Non-SCF case, kpt   12 (  0.43137  0.00000  0.00000), residuals and eigenvalues=
  5.32E-13  4.46E-13  4.35E-13  2.07E-13
 -2.2094E+00 -1.3670E+00 -1.3496E+00 -1.3340E+00
 Non-SCF case, kpt   13 (  0.47059  0.00000  0.00000), residuals and eigenvalues=
  9.72E-13  4.99E-13  9.28E-13  5.67E-13
 -2.2111E+00 -1.3675E+00 -1.3495E+00 -1.3341E+00
 Non-SCF case, kpt   14 (  0.50980  0.00000  0.00000), residuals and eigenvalues=
  3.47E-13  3.46E-13  1.91E-13  2.61E-13
 -2.2117E+00 -1.3676E+00 -1.3495E+00 -1.3342E+00
 Non-SCF case, kpt   15 (  0.54902  0.00000  0.00000), residuals and eigenvalues=
  4.18E-13  2.21E-13  3.32E-13  5.97E-13
 -2.2107E+00 -1.3673E+00 -1.3495E+00 -1.3341E+00
 Non-SCF case, kpt   16 (  0.58824  0.00000  0.00000), residuals and eigenvalues=
  3.67E-13  4.23E-13  5.58E-13  9.83E-13
 -2.2110E+00 -1.3667E+00 -1.3496E+00 -1.3339E+00
 Non-SCF case, kpt   17 (  0.62745  0.00000  0.00000), residuals and eigenvalues=
  9.81E-13  7.79E-13  7.17E-13  8.64E-13
 -2.2114E+00 -1.3657E+00 -1.3498E+00 -1.3337E+00
 Non-SCF case, kpt   18 (  0.66667  0.00000  0.00000), residuals and eigenvalues=
  3.04E-13  7.69E-13  3.17E-13  2.85E-13
 -2.2126E+00 -1.3644E+00 -1.3500E+00 -1.3333E+00
 Non-SCF case, kpt   19 (  0.65000 -0.02887  0.00000), residuals and eigenvalues=
  7.92E-13  9.16E-13  7.81E-13  4.50E-13
 -2.2121E+00 -1.3654E+00 -1.3499E+00 -1.3337E+00
 Non-SCF case, kpt   20 (  0.63333 -0.05774  0.00000), residuals and eigenvalues=
  5.38E-13  8.51E-13  8.74E-13  3.03E-13
 -2.2115E+00 -1.3662E+00 -1.3497E+00 -1.3341E+00
 Non-SCF case, kpt   21 (  0.61667 -0.08660  0.00000), residuals and eigenvalues=
  2.75E-13  3.93E-13  9.29E-13  8.72E-13
 -2.2104E+00 -1.3667E+00 -1.3495E+00 -1.3346E+00
 Non-SCF case, kpt   22 (  0.60000 -0.11547  0.00000), residuals and eigenvalues=
  2.85E-13  7.14E-13  3.51E-13  5.33E-13
 -2.2098E+00 -1.3669E+00 -1.3494E+00 -1.3351E+00
 Non-SCF case, kpt   23 (  0.58333 -0.14434  0.00000), residuals and eigenvalues=
  4.27E-13  7.83E-13  8.23E-13  2.42E-13
 -2.2092E+00 -1.3668E+00 -1.3493E+00 -1.3357E+00
 Non-SCF case, kpt   24 (  0.56667 -0.17321  0.00000), residuals and eigenvalues=
  5.31E-13  3.02E-13  3.62E-13  8.25E-13
 -2.2096E+00 -1.3664E+00 -1.3493E+00 -1.3363E+00
 Non-SCF case, kpt   25 (  0.55000 -0.20207  0.00000), residuals and eigenvalues=
  5.26E-13  8.09E-13  7.61E-13  7.30E-13
 -2.2091E+00 -1.3658E+00 -1.3493E+00 -1.3369E+00
 Non-SCF case, kpt   26 (  0.53333 -0.23094  0.00000), residuals and eigenvalues=
  5.71E-13  4.13E-13  3.98E-13  2.70E-13
 -2.2093E+00 -1.3651E+00 -1.3494E+00 -1.3375E+00
 Non-SCF case, kpt   27 (  0.51667 -0.25981  0.00000), residuals and eigenvalues=
  5.26E-13  2.46E-13  2.22E-13  4.91E-13
 -2.2075E+00 -1.3642E+00 -1.3494E+00 -1.3380E+00
 Non-SCF case, kpt   28 (  0.50000 -0.28868  0.00000), residuals and eigenvalues=
  7.90E-13  7.02E-13  4.65E-13  4.84E-13
 -2.2099E+00 -1.3634E+00 -1.3495E+00 -1.3384E+00
 Non-SCF case, kpt   29 (  0.45455 -0.26243  0.00000), residuals and eigenvalues=
  4.58E-13  4.92E-13  8.96E-13  2.14E-13
 -2.2113E+00 -1.3630E+00 -1.3497E+00 -1.3375E+00
 Non-SCF case, kpt   30 (  0.40909 -0.23619  0.00000), residuals and eigenvalues=
  6.70E-13  9.60E-13  2.20E-13  2.33E-13
 -2.2111E+00 -1.3623E+00 -1.3499E+00 -1.3366E+00
 Non-SCF case, kpt   31 (  0.36364 -0.20995  0.00000), residuals and eigenvalues=
  5.03E-13  7.55E-13  5.69E-13  9.07E-13
 -2.2120E+00 -1.3614E+00 -1.3502E+00 -1.3357E+00
 Non-SCF case, kpt   32 (  0.31818 -0.18370  0.00000), residuals and eigenvalues=
  3.18E-13  2.30E-13  3.74E-13  6.25E-13
 -2.2133E+00 -1.3603E+00 -1.3504E+00 -1.3348E+00
 Non-SCF case, kpt   33 (  0.27273 -0.15746  0.00000), residuals and eigenvalues=
  4.57E-13  8.18E-13  8.19E-13  2.06E-13
 -2.2140E+00 -1.3591E+00 -1.3507E+00 -1.3339E+00
 Non-SCF case, kpt   34 (  0.22727 -0.13122  0.00000), residuals and eigenvalues=
  4.12E-13  2.72E-13  4.41E-13  1.70E-12
 -2.2141E+00 -1.3579E+00 -1.3510E+00 -1.3331E+00
 Non-SCF case, kpt   35 (  0.18182 -0.10497  0.00000), residuals and eigenvalues=
  3.03E-13  4.17E-13  2.57E-13  4.75E-13
 -2.2149E+00 -1.3568E+00 -1.3513E+00 -1.3324E+00
 Non-SCF case, kpt   36 (  0.13636 -0.07873  0.00000), residuals and eigenvalues=
  3.17E-13  6.16E-13  7.98E-13  8.46E-13
 -2.2151E+00 -1.3559E+00 -1.3515E+00 -1.3318E+00
 Non-SCF case, kpt   37 (  0.09091 -0.05249  0.00000), residuals and eigenvalues=
  9.00E-13  3.06E-13  5.37E-13  3.06E-13
 -2.2152E+00 -1.3552E+00 -1.3517E+00 -1.3313E+00
 Non-SCF case, kpt   38 (  0.04545 -0.02624  0.00000), residuals and eigenvalues=
  4.44E-13  9.85E-13  3.80E-13  7.43E-13
 -2.2148E+00 -1.3547E+00 -1.3518E+00 -1.3310E+00
 Non-SCF case, kpt   39 (  0.00000  0.00000  0.00000), residuals and eigenvalues=
  5.56E-13  5.95E-13  7.33E-13  4.94E-13
 -2.2160E+00 -1.3546E+00 -1.3518E+00 -1.3309E+00
 

--- !ResultsGS
iteration_state: {dtset: 2, }
comment   : Summary of ground state results
lattice_vectors:
- [  2.9763187,  -5.1551351,   0.0000000, ]
- [  2.9763187,   5.1551351,   0.0000000, ]
- [  0.0000000,   0.0000000,  37.7945227, ]
lattice_lengths: [   5.95264,    5.95264,   37.79452, ]
lattice_angles: [ 90.000,  90.000, 120.000, ] # degrees, (23, 13, 12)
lattice_volume:   1.1597873E+03
convergence: {deltae:  0.000E+00, res2:  0.000E+00, residm:  9.854E-13, diffor:  0.000E+00, }
etotal    :  -9.17522834E+01
entropy   :   0.00000000E+00
fermie    :  -7.78371054E-02
cartesian_stress_tensor: null
pressure_GPa: null
xred      :
- [  3.3333E-01,   6.6667E-01,   0.0000E+00, Mo]
- [  6.6667E-01,   3.3333E-01,  -9.1944E-02,  S]
- [  6.6667E-01,   3.3333E-01,   9.1944E-02,  S]
cartesian_forces: null
force_length_stats: {min: null, max: null, mean: null, }
...

 Integrated electronic density in atomic spheres:
 ------------------------------------------------
 Atom  Sphere_radius  Integrated_density
    1        2.00000         10.44089670
    2        2.00000          3.84521671
    3        2.00000          3.84512670
================================================================================
 
 ----iterations are completed or convergence reached----
 
 Mean square residual over all n,k,spin=   52.120E-14; max=  98.543E-14
 reduced coordinates (array xred) for    3 atoms
       0.333333333333      0.666666666667      0.000000000000
       0.666666666667      0.333333333333     -0.091944235000
       0.666666666667      0.333333333333      0.091944235000
 
 cartesian coordinates (angstrom) at end:
    1      1.57500000000000     0.90932667396900     0.00000000000000
    2      1.57500000000000    -0.90932667396900    -1.83888470000000
    3      1.57500000000000    -0.90932667396900     1.83888470000000
 length scales=  5.952637318590  5.952637318590 37.794522657713 bohr
              =  3.150000000000  3.150000000000 20.000000000000 angstroms
 prteigrs : about to open file mos2o_DS2_EIG
 Eigenvalues (   eV  ) for nkpt=  39  k points:
 kpt#   1, nband=  4, wtk=  1.00000, kpt=  0.0000  0.0000  0.0000 (reduced coord)
 -60.30098  -36.86023  -36.78441  -36.21576
 kpt#   2, nband=  4, wtk=  1.00000, kpt=  0.0392  0.0000  0.0000 (reduced coord)
 -60.25457  -36.86531  -36.78317  -36.21675
 kpt#   3, nband=  4, wtk=  1.00000, kpt=  0.0784  0.0000  0.0000 (reduced coord)
 -60.25931  -36.88124  -36.78040  -36.22060
 kpt#   4, nband=  4, wtk=  1.00000, kpt=  0.1176  0.0000  0.0000 (reduced coord)
 -60.29022  -36.90680  -36.77611  -36.22702
 kpt#   5, nband=  4, wtk=  1.00000, kpt=  0.1569  0.0000  0.0000 (reduced coord)
 -60.29754  -36.94042  -36.77034  -36.23526
 kpt#   6, nband=  4, wtk=  1.00000, kpt=  0.1961  0.0000  0.0000 (reduced coord)
 -60.25010  -36.97940  -36.76306  -36.24484
 kpt#   7, nband=  4, wtk=  1.00000, kpt=  0.2353  0.0000  0.0000 (reduced coord)
 -60.24833  -37.02233  -36.75537  -36.25558
 kpt#   8, nband=  4, wtk=  1.00000, kpt=  0.2745  0.0000  0.0000 (reduced coord)
 -60.21627  -37.06592  -36.74738  -36.26632
 kpt#   9, nband=  4, wtk=  1.00000, kpt=  0.3137  0.0000  0.0000 (reduced coord)
 -60.19421  -37.10759  -36.73987  -36.27695
 kpt#  10, nband=  4, wtk=  1.00000, kpt=  0.3529  0.0000  0.0000 (reduced coord)
 -60.20205  -37.14567  -36.73324  -36.28655
 kpt#  11, nband=  4, wtk=  1.00000, kpt=  0.3922  0.0000  0.0000 (reduced coord)
 -60.16279  -37.17674  -36.72746  -36.29437
 kpt#  12, nband=  4, wtk=  1.00000, kpt=  0.4314  0.0000  0.0000 (reduced coord)
 -60.12018  -37.19896  -36.72320  -36.30014
 kpt#  13, nband=  4, wtk=  1.00000, kpt=  0.4706  0.0000  0.0000 (reduced coord)
 -60.16705  -37.21250  -36.72083  -36.30386
 kpt#  14, nband=  4, wtk=  1.00000, kpt=  0.5098  0.0000  0.0000 (reduced coord)
 -60.18367  -37.21516  -36.72042  -36.30468
 kpt#  15, nband=  4, wtk=  1.00000, kpt=  0.5490  0.0000  0.0000 (reduced coord)
 -60.15647  -37.20720  -36.72173  -36.30247
 kpt#  16, nband=  4, wtk=  1.00000, kpt=  0.5882  0.0000  0.0000 (reduced coord)
 -60.16387  -37.18938  -36.72509  -36.29767
 kpt#  17, nband=  4, wtk=  1.00000, kpt=  0.6275  0.0000  0.0000 (reduced coord)
 -60.17425  -37.16190  -36.73020  -36.29072
 kpt#  18, nband=  4, wtk=  1.00000, kpt=  0.6667  0.0000  0.0000 (reduced coord)
 -60.20656  -37.12755  -36.73644  -36.28194
 kpt#  19, nband=  4, wtk=  1.00000, kpt=  0.6500 -0.0289  0.0000 (reduced coord)
 -60.19523  -37.15496  -36.73130  -36.29088
 kpt#  20, nband=  4, wtk=  1.00000, kpt=  0.6333 -0.0577  0.0000 (reduced coord)
 -60.17753  -37.17633  -36.72657  -36.30234
 kpt#  21, nband=  4, wtk=  1.00000, kpt=  0.6167 -0.0866  0.0000 (reduced coord)
 -60.14860  -37.18995  -36.72251  -36.31578
 kpt#  22, nband=  4, wtk=  1.00000, kpt=  0.6000 -0.1155  0.0000 (reduced coord)
 -60.13098  -37.19525  -36.71956  -36.33082
 kpt#  23, nband=  4, wtk=  1.00000, kpt=  0.5833 -0.1443  0.0000 (reduced coord)
 -60.11501  -37.19245  -36.71764  -36.34679
 kpt#  24, nband=  4, wtk=  1.00000, kpt=  0.5667 -0.1732  0.0000 (reduced coord)
 -60.12702  -37.18239  -36.71700  -36.36321
 kpt#  25, nband=  4, wtk=  1.00000, kpt=  0.5500 -0.2021  0.0000 (reduced coord)
 -60.11139  -37.16597  -36.71712  -36.37920
 kpt#  26, nband=  4, wtk=  1.00000, kpt=  0.5333 -0.2309  0.0000 (reduced coord)
 -60.11791  -37.14546  -36.71808  -36.39424
 kpt#  27, nband=  4, wtk=  1.00000, kpt=  0.5167 -0.2598  0.0000 (reduced coord)
 -60.06992  -37.12225  -36.71931  -36.40750
 kpt#  28, nband=  4, wtk=  1.00000, kpt=  0.5000 -0.2887  0.0000 (reduced coord)
 -60.13481  -37.09953  -36.72124  -36.41961
 kpt#  29, nband=  4, wtk=  1.00000, kpt=  0.4545 -0.2624  0.0000 (reduced coord)
 -60.17130  -37.08872  -36.72622  -36.39574
 kpt#  30, nband=  4, wtk=  1.00000, kpt=  0.4091 -0.2362  0.0000 (reduced coord)
 -60.16817  -37.06996  -36.73233  -36.37073
 kpt#  31, nband=  4, wtk=  1.00000, kpt=  0.3636 -0.2099  0.0000 (reduced coord)
 -60.19209  -37.04484  -36.73946  -36.34568
 kpt#  32, nband=  4, wtk=  1.00000, kpt=  0.3182 -0.1837  0.0000 (reduced coord)
 -60.22595  -37.01530  -36.74731  -36.32094
 kpt#  33, nband=  4, wtk=  1.00000, kpt=  0.2727 -0.1575  0.0000 (reduced coord)
 -60.24713  -36.98315  -36.75534  -36.29729
 kpt#  34, nband=  4, wtk=  1.00000, kpt=  0.2273 -0.1312  0.0000 (reduced coord)
 -60.24957  -36.95091  -36.76293  -36.27517
 kpt#  35, nband=  4, wtk=  1.00000, kpt=  0.1818 -0.1050  0.0000 (reduced coord)
 -60.27075  -36.92119  -36.77010  -36.25535
 kpt#  36, nband=  4, wtk=  1.00000, kpt=  0.1364 -0.0787  0.0000 (reduced coord)
 -60.27671  -36.89571  -36.77584  -36.23882
 kpt#  37, nband=  4, wtk=  1.00000, kpt=  0.0909 -0.0525  0.0000 (reduced coord)
 -60.27849  -36.87615  -36.78041  -36.22623
 kpt#  38, nband=  4, wtk=  1.00000, kpt=  0.0455 -0.0262  0.0000 (reduced coord)
 -60.26851  -36.86398  -36.78326  -36.21824
 kpt#  39, nband=  4, wtk=  1.00000, kpt=  0.0000  0.0000  0.0000 (reduced coord)
 -60.30098  -36.86023  -36.78441  -36.21576
