
.Version 9.10.3 of ABINIT 
.(MPI version, prepared for a x86_64_linux_intel2021.6 computer) 

.Copyright (C) 1998-2022 ABINIT group . 
 ABINIT comes with ABSOLUTELY NO WARRANTY.
 It is free software, and you are welcome to redistribute it
 under certain conditions (GNU General Public License,
 see ~abinit/COPYING or http://www.gnu.org/copyleft/gpl.txt).

 ABINIT is a project of the Universite Catholique de Louvain,
 Corning Inc. and other collaborators, see ~abinit/doc/developers/contributors.txt .
 Please read https://docs.abinit.org/theory/acknowledgments for suggested
 acknowledgments of the ABINIT effort.
 For more information, see https://www.abinit.org .

.Starting date : Wed  7 May 2025.
- ( at 05h52 )
  
- input  file    -> mos2.abi
- output file    -> mos2.abo
- root for input  files -> mos2i
- root for output files -> mos2o
 
 
 DATASET    1 : space group P1 (#  1); Bravais aP (primitive triclinic)
================================================================================
 Values of the parameters that define the memory need for DATASET  1.
     intxc =       0    ionmov =       0      iscf =       7    lmnmax =       6
     lnmax =       6     mgfft =     120  mpssoang =       3    mqgrid =    5894
     natom =       3  nloc_mem =       1    nspden =       1   nspinor =       1
    nsppol =       1      nsym =       1    n1xccc =    2501    ntypat =       2
    occopt =       1   xclevel =       2
-    mband =          14        mffmem =           1         mkmem =          20
       mpw =        2322          nfft =       48000          nkpt =          20
================================================================================
P This job should need less than                      26.745 Mbytes of memory.
  Rough estimation (10% accuracy) of disk space for files :
_ WF disk file :      9.923 Mbytes ; DEN or POT disk file :      0.368 Mbytes.
================================================================================
 
 
 DATASET    2 : space group P1 (#  1); Bravais aP (primitive triclinic)
================================================================================
 Values of the parameters that define the memory need for DATASET  2.
     intxc =       0    ionmov =       0      iscf =      -2    lmnmax =       6
     lnmax =       6     mgfft =     120  mpssoang =       3    mqgrid =    5894
     natom =       3  nloc_mem =       1    nspden =       1   nspinor =       1
    nsppol =       1      nsym =       1    n1xccc =    2501    ntypat =       2
    occopt =       1   xclevel =       2
-    mband =           4        mffmem =           1         mkmem =          21
       mpw =        2321          nfft =       48000          nkpt =          21
================================================================================
P This job should need less than                      13.925 Mbytes of memory.
  Rough estimation (10% accuracy) of disk space for files :
_ WF disk file :      2.977 Mbytes ; DEN or POT disk file :      0.368 Mbytes.
================================================================================
 
--------------------------------------------------------------------------------
------------- Echo of variables that govern the present computation ------------
--------------------------------------------------------------------------------
-
- outvars: echo of selected default values                                      
-   iomode0 =  0 , fftalg0 =512 , wfoptalg0 =  0
-
- outvars: echo of global parameters not present in the input file              
-  max_nthreads =    0
-
 -outvars: echo values of preprocessed input variables --------
            acell      5.9526373186E+00  5.9526373186E+00  3.7794522658E+01 Bohr
              amu      9.59400000E+01  3.20660000E+01
      chksymbreak           0
             ecut      1.20000000E+01 Hartree
           enunit1          0
           enunit2          1
-          fftalg         512
           getden1          0
           getden2         -1
             iscf1          7
             iscf2         -2
           istwfk1       4    0    0    5    0    0    0    0    0    0
                         0    0    0    0    0    0    8    0    0    9
           istwfk2       2    0    0    0    0    0    0    0    0    0
                         0    0    0    0    0    0    0    0    0    0
                         2
              ixc          11
           jdtset        1    2
              kpt1     0.00000000E+00  0.00000000E+00  5.00000000E-01
                       1.66666667E-01  0.00000000E+00  5.00000000E-01
                       3.33333333E-01  0.00000000E+00  5.00000000E-01
                       5.00000000E-01  0.00000000E+00  5.00000000E-01
                       0.00000000E+00  1.66666667E-01  5.00000000E-01
                       1.66666667E-01  1.66666667E-01  5.00000000E-01
                       3.33333333E-01  1.66666667E-01  5.00000000E-01
                       5.00000000E-01  1.66666667E-01  5.00000000E-01
                      -3.33333333E-01  1.66666667E-01  5.00000000E-01
                      -1.66666667E-01  1.66666667E-01  5.00000000E-01
                       0.00000000E+00  3.33333333E-01  5.00000000E-01
                       1.66666667E-01  3.33333333E-01  5.00000000E-01
                       3.33333333E-01  3.33333333E-01  5.00000000E-01
                       5.00000000E-01  3.33333333E-01  5.00000000E-01
                      -3.33333333E-01  3.33333333E-01  5.00000000E-01
                      -1.66666667E-01  3.33333333E-01  5.00000000E-01
                       0.00000000E+00  5.00000000E-01  5.00000000E-01
                       1.66666667E-01  5.00000000E-01  5.00000000E-01
                       3.33333333E-01  5.00000000E-01  5.00000000E-01
                       5.00000000E-01  5.00000000E-01  5.00000000E-01
              kpt2     0.00000000E+00  0.00000000E+00  0.00000000E+00
                       3.33333333E-02  3.33333333E-02  0.00000000E+00
                       6.66666667E-02  6.66666667E-02  0.00000000E+00
                       1.00000000E-01  1.00000000E-01  0.00000000E+00
                       1.33333333E-01  1.33333333E-01  0.00000000E+00
                       1.66666667E-01  1.66666667E-01  0.00000000E+00
                       2.00000000E-01  2.00000000E-01  0.00000000E+00
                       2.33333333E-01  2.33333333E-01  0.00000000E+00
                       2.66666667E-01  2.66666667E-01  0.00000000E+00
                       3.00000000E-01  3.00000000E-01  0.00000000E+00
                       3.33333333E-01  3.33333333E-01  0.00000000E+00
                       3.00000000E-01  3.00000000E-01  0.00000000E+00
                       2.66666667E-01  2.66666667E-01  0.00000000E+00
                       2.33333333E-01  2.33333333E-01  0.00000000E+00
                       2.00000000E-01  2.00000000E-01  0.00000000E+00
                       1.66666667E-01  1.66666667E-01  0.00000000E+00
                       1.33333333E-01  1.33333333E-01  0.00000000E+00
                       1.00000000E-01  1.00000000E-01  0.00000000E+00
                       6.66666667E-02  6.66666667E-02  0.00000000E+00
                       3.33333333E-02  3.33333333E-02  0.00000000E+00
                       0.00000000E+00  0.00000000E+00  0.00000000E+00
           kptopt1          1
           kptopt2         -2
         kptrlatt        6    0    0      0    6    0      0    0    1
          kptrlen1     3.57158239E+01
          kptrlen2     3.00000000E+01
P           mkmem1         20
P           mkmem2         21
            natom           3
            nband1         14
            nband2          4
           nbdbuf1          0
           nbdbuf2          2
           ndtset           2
           ndivsm1          0
           ndivsm2         10
            ngfft          20      20     120
             nkpt1         20
             nkpt2         21
            nstep          10
             nsym           1
           ntypat           2
              occ      2.000000  2.000000  2.000000  2.000000  2.000000  2.000000
                       2.000000  2.000000  2.000000  2.000000  2.000000  2.000000
                       2.000000  0.000000
            rprim      5.0000000000E-01 -8.6602540378E-01  0.0000000000E+00
                       5.0000000000E-01  8.6602540378E-01  0.0000000000E+00
                       0.0000000000E+00  0.0000000000E+00  1.0000000000E+00
           shiftk1     0.00000000E+00  0.00000000E+00  5.00000000E-01
           shiftk2     5.00000000E-01  5.00000000E-01  5.00000000E-01
          spgroup           1
           toldfe1     1.00000000E-06 Hartree
           toldfe2     0.00000000E+00 Hartree
           tolwfr1     0.00000000E+00
           tolwfr2     1.00000000E-12
            typat      1  2  2
              wtk1       0.02778    0.05556    0.05556    0.02778    0.05556    0.05556
                         0.05556    0.05556    0.05556    0.05556    0.05556    0.05556
                         0.05556    0.05556    0.05556    0.05556    0.02778    0.05556
                         0.05556    0.02778
              wtk2       1.00000    1.00000    1.00000    1.00000    1.00000    1.00000
                         1.00000    1.00000    1.00000    1.00000    1.00000    1.00000
                         1.00000    1.00000    1.00000    1.00000    1.00000    1.00000
                         1.00000    1.00000    1.00000
           xangst      1.5750000000E+00  9.0932667397E-01  0.0000000000E+00
                       1.5750000000E+00 -9.0932667397E-01 -1.8388847000E+00
                       1.5750000000E+00 -9.0932667397E-01  1.8388847000E+00
            xcart      2.9763186593E+00  1.7183783791E+00  0.0000000000E+00
                       2.9763186593E+00 -1.7183783791E+00 -3.4749884730E+00
                       2.9763186593E+00 -1.7183783791E+00  3.4749884730E+00
             xred      3.3333333333E-01  6.6666666667E-01  0.0000000000E+00
                       6.6666666667E-01  3.3333333333E-01 -9.1944235000E-02
                       6.6666666667E-01  3.3333333333E-01  9.1944235000E-02
            znucl       42.00000   16.00000
 
================================================================================
 
 chkinp: Checking input parameters for consistency, jdtset=   1.
 
 chkinp: Checking input parameters for consistency, jdtset=   2.
 
================================================================================
== DATASET  1 ==================================================================
-   mpi_nproc: 1, omp_nthreads: -1 (-1 if OMP is not activated)
 

--- !DatasetInfo
iteration_state: {dtset: 1, }
dimensions: {natom: 3, nkpt: 20, mband: 14, nsppol: 1, nspinor: 1, nspden: 1, mpw: 2322, }
cutoff_energies: {ecut:  12.0, pawecutdg:  -1.0, }
electrons: {nelect:   2.60000000E+01, charge:   0.00000000E+00, occopt:   1.00000000E+00, tsmear:   1.00000000E-02, }
meta: {optdriver: 0, ionmov: 0, optcell: 0, iscf: 7, paral_kgb: 0, }
...

 Exchange-correlation functional for the present dataset will be:
  GGA: Perdew-Burke-Ernzerhof functional - ixc=11
 Citation for XC functional:
  J.P.Perdew, K.Burke, M.Ernzerhof, PRL 77, 3865 (1996)
 
 Real(R)+Recip(G) space primitive vectors, cartesian coordinates (Bohr,Bohr^-1):
 R(1)=  2.9763187 -5.1551351  0.0000000  G(1)=  0.1679928 -0.0969907  0.0000000
 R(2)=  2.9763187  5.1551351  0.0000000  G(2)=  0.1679928  0.0969907  0.0000000
 R(3)=  0.0000000  0.0000000 37.7945227  G(3)=  0.0000000  0.0000000  0.0264589
 Unit cell volume ucvol=  1.1597873E+03 bohr^3
 Angles (23,13,12)=  9.00000000E+01  9.00000000E+01  1.20000000E+02 degrees
 
 getcut: wavevector=  0.0000  0.0000  0.0000  ngfft=  20  20 120
         ecut(hartree)=     12.000   => boxcut(ratio)=   2.03609
 
--- Pseudopotential description ------------------------------------------------
- pspini: atom type   1  psp file is ./persudo/Mo.psp8
- pspatm: opening atomic psp file    ./persudo/Mo.psp8
- Mo    ONCVPSP-3.2.3.1  r_core=   1.45541   1.45541   1.35488
- 42.00000  14.00000    170510                znucl, zion, pspdat
    8   11    2    4       600   0.00000      pspcod,pspxc,lmax,lloc,mmax,r2well
    5.99000000000000    3.00000000000000    0.00000000000000   rchrg,fchrg,qchrg
     nproj     2     2     2
     extension_switch     1
  pspatm : epsatm=   15.95693586
         --- l  ekb(1:nproj) -->
             0   13.833287    1.350687
             1    8.015347    1.134034
             2    2.765699    0.969071
 pspatm: atomic psp has been read  and splines computed
 
- pspini: atom type   2  psp file is ./persudo/S.psp8
- pspatm: opening atomic psp file    ./persudo/S.psp8
- S     ONCVPSP-4.0.1  r_core=   1.45687   1.45687   1.45687
- 16.00000   6.00000    220131                znucl, zion, pspdat
    8   11    2    4       600   0.00000      pspcod,pspxc,lmax,lloc,mmax,r2well
    5.99000000000000    6.00000000000000    0.00000000000000   rchrg,fchrg,qchrg
     nproj     2     2     2
     extension_switch     1
  pspatm : epsatm=    9.04179351
         --- l  ekb(1:nproj) -->
             0    6.774234    0.542270
             1    3.022426    0.737017
             2   -5.033160   -1.531047
 pspatm: atomic psp has been read  and splines computed
 
   8.85053595E+02                                ecore*ucvol(ha*bohr**3)
--------------------------------------------------------------------------------
 
_setup2: Arith. and geom. avg. npw (full set) are    2301.278    2301.207
 
================================================================================

--- !BeginCycle
iteration_state: {dtset: 1, }
solver: {iscf: 7, nstep: 10, nline: 4, wfoptalg: 0, }
tolerances: {toldfe: 1.00E-06, }
...
 
     iter   Etot(hartree)      deltaE(h)  residm     vres2
 ETOT  1  -90.815120034503    -9.082E+01 6.811E-02 4.140E+03
 ETOT  2  -85.882551964425     4.933E+00 2.318E-02 2.635E+04
 ETOT  3  -91.820064177896    -5.938E+00 1.368E-01 2.671E+01
 ETOT  4  -91.850164516229    -3.010E-02 3.396E-03 1.002E+01
 ETOT  5  -91.852037224722    -1.873E-03 1.499E-03 9.651E+00
 ETOT  6  -91.852310834366    -2.736E-04 4.551E-04 6.776E+00
 ETOT  7  -91.852414396071    -1.036E-04 3.229E-04 4.584E+00
 ETOT  8  -91.852456058699    -4.166E-05 1.189E-04 3.324E+00
 ETOT  9  -91.852483506749    -2.745E-05 1.220E-04 2.607E+00
 ETOT 10  -91.852535751059    -5.224E-05 6.046E-05 1.212E+00
 
 Cartesian components of stress tensor (hartree/bohr^3)
  sigma(1 1)=  7.92501464E-04  sigma(3 2)=  2.48297723E-08
  sigma(2 2)=  7.92398419E-04  sigma(3 1)= -3.73240208E-08
  sigma(3 3)=  1.11238131E-03  sigma(2 1)=  3.68943221E-08
 
 
 scprqt:  WARNING -
  nstep=   10 was not enough SCF cycles to converge;
  maximum energy difference=  5.224E-05 exceeds toldfe=  1.000E-06
 

--- !ResultsGS
iteration_state: {dtset: 1, }
comment   : Summary of ground state results
lattice_vectors:
- [  2.9763187,  -5.1551351,   0.0000000, ]
- [  2.9763187,   5.1551351,   0.0000000, ]
- [  0.0000000,   0.0000000,  37.7945227, ]
lattice_lengths: [   5.95264,    5.95264,   37.79452, ]
lattice_angles: [ 90.000,  90.000, 120.000, ] # degrees, (23, 13, 12)
lattice_volume:   1.1597873E+03
convergence: {deltae: -5.224E-05, res2:  1.212E+00, residm:  6.046E-05, diffor: null, }
etotal    :  -9.18525358E+01
entropy   :   0.00000000E+00
fermie    :  -5.73161290E-02
cartesian_stress_tensor: # hartree/bohr^3
- [  7.92501464E-04,   3.68943221E-08,  -3.73240208E-08, ]
- [  3.68943221E-08,   7.92398419E-04,   2.48297723E-08, ]
- [ -3.73240208E-08,   2.48297723E-08,   1.11238131E-03, ]
pressure_GPa:  -2.6452E+01
xred      :
- [  3.3333E-01,   6.6667E-01,   0.0000E+00, Mo]
- [  6.6667E-01,   3.3333E-01,  -9.1944E-02,  S]
- [  6.6667E-01,   3.3333E-01,   9.1944E-02,  S]
cartesian_forces: # hartree/bohr
- [ -2.68752043E-07,   1.64294779E-06,  -7.32688869E-05, ]
- [ -6.57701700E-07,  -2.81661011E-06,   6.78080992E-02, ]
- [  9.26453743E-07,   1.17366232E-06,  -6.77348303E-02, ]
force_length_stats: {min:   7.32877977E-05, max:   6.78080993E-02, mean:   4.52054058E-02, }
...

 Integrated electronic density in atomic spheres:
 ------------------------------------------------
 Atom  Sphere_radius  Integrated_density
    1        2.00000         10.37238136
    2        2.00000          3.83131304
    3        2.00000          3.83137151
================================================================================
 
 ----iterations are completed or convergence reached----
 
 Mean square residual over all n,k,spin=   67.706E-08; max=  60.464E-06
 reduced coordinates (array xred) for    3 atoms
       0.333333333333      0.666666666667      0.000000000000
       0.666666666667      0.333333333333     -0.091944235000
       0.666666666667      0.333333333333      0.091944235000
 rms dE/dt=  1.2075E+00; max dE/dt=  2.5598E+00; dE/dt below (all hartree)
    1       0.000007977997     -0.000005842290      0.002584938577
    2      -0.000013853989      0.000018304972     -2.562958965808
    3       0.000002001454     -0.000006980373      2.559821355148
 
 cartesian coordinates (angstrom) at end:
    1      1.57500000000000     0.90932667396900     0.00000000000000
    2      1.57500000000000    -0.90932667396900    -1.83888470000000
    3      1.57500000000000    -0.90932667396900     1.83888470000000
 
 cartesian forces (hartree/bohr) at end:
    1     -0.00000026875204     0.00000164294779    -0.00007326888686
    2     -0.00000065770170    -0.00000281661011     0.06780809920501
    3      0.00000092645374     0.00000117366232    -0.06773483031815
 frms,max,avg= 3.1947789E-02 6.7808099E-02  -9.003E-08 -3.025E-07  4.874E-06 h/b
 
 cartesian forces (eV/Angstrom) at end:
    1     -0.00001381978455     0.00008448376491    -0.00376763733038
    2     -0.00003382037839    -0.00014483590315     3.48683236226487
    3      0.00004764016294     0.00006035213824    -3.48306472493449
 frms,max,avg= 1.6428212E+00 3.4868324E+00  -4.630E-06 -1.556E-05  2.506E-04 e/A
 length scales=  5.952637318590  5.952637318590 37.794522657713 bohr
              =  3.150000000000  3.150000000000 20.000000000000 angstroms
 prteigrs : about to open file mos2o_DS1_EIG
 Fermi (or HOMO) energy (hartree) =  -0.05732   Average Vxc (hartree)=  -0.15543
 Eigenvalues (hartree) for nkpt=  20  k points:
 kpt#   1, nband= 14, wtk=  0.02778, kpt=  0.0000  0.0000  0.5000 (reduced coord)
  -2.24731   -1.38165   -1.37150   -1.37150   -0.55415   -0.53241   -0.24373   -0.14887
  -0.11311   -0.11310   -0.09644   -0.07628   -0.07628    0.02810
 prteigrs : prtvol=0 or 1, do not print more k-points.
 

--- !EnergyTerms
iteration_state     : {dtset: 1, }
comment             : Components of total free energy in Hartree
kinetic             :  2.87740334852952E+01
hartree             :  2.65614600286326E+02
xc                  : -1.63661408986799E+01
Ewald energy        :  1.89573206011761E+02
psp_core            :  7.63117176066322E-01
local_psp           : -5.72227046998770E+02
non_local_psp       :  1.20156951869432E+01
total_energy        : -9.18525357510587E+01
total_energy_eV     : -2.49943460883643E+03
band_energy         : -1.68802284763366E+01
...

 
 Cartesian components of stress tensor (hartree/bohr^3)
  sigma(1 1)=  7.92501464E-04  sigma(3 2)=  2.48297723E-08
  sigma(2 2)=  7.92398419E-04  sigma(3 1)= -3.73240208E-08
  sigma(3 3)=  1.11238131E-03  sigma(2 1)=  3.68943221E-08
 
-Cartesian components of stress tensor (GPa)         [Pressure= -2.6452E+01 GPa]
- sigma(1 1)=  2.33161941E+01  sigma(3 2)=  7.30516999E-04
- sigma(2 2)=  2.33131624E+01  sigma(3 1)= -1.09811042E-03
- sigma(3 3)=  3.27273824E+01  sigma(2 1)=  1.08546825E-03
 
================================================================================
== DATASET  2 ==================================================================
-   mpi_nproc: 1, omp_nthreads: -1 (-1 if OMP is not activated)
 

--- !DatasetInfo
iteration_state: {dtset: 2, }
dimensions: {natom: 3, nkpt: 21, mband: 4, nsppol: 1, nspinor: 1, nspden: 1, mpw: 2321, }
cutoff_energies: {ecut:  12.0, pawecutdg:  -1.0, }
electrons: {nelect:   2.60000000E+01, charge:   0.00000000E+00, occopt:   1.00000000E+00, tsmear:   1.00000000E-02, }
meta: {optdriver: 0, ionmov: 0, optcell: 0, iscf: -2, paral_kgb: 0, }
...

 mkfilename : getden/=0, take file _DEN from output of DATASET   1.
 
 Exchange-correlation functional for the present dataset will be:
  GGA: Perdew-Burke-Ernzerhof functional - ixc=11
 Citation for XC functional:
  J.P.Perdew, K.Burke, M.Ernzerhof, PRL 77, 3865 (1996)
 
 Real(R)+Recip(G) space primitive vectors, cartesian coordinates (Bohr,Bohr^-1):
 R(1)=  2.9763187 -5.1551351  0.0000000  G(1)=  0.1679928 -0.0969907  0.0000000
 R(2)=  2.9763187  5.1551351  0.0000000  G(2)=  0.1679928  0.0969907  0.0000000
 R(3)=  0.0000000  0.0000000 37.7945227  G(3)=  0.0000000  0.0000000  0.0264589
 Unit cell volume ucvol=  1.1597873E+03 bohr^3
 Angles (23,13,12)=  9.00000000E+01  9.00000000E+01  1.20000000E+02 degrees
 
 getcut: wavevector=  0.0000  0.0000  0.0000  ngfft=  20  20 120
         ecut(hartree)=     12.000   => boxcut(ratio)=   2.03609
--------------------------------------------------------------------------------
 
 
================================================================================
 prteigrs : about to open file mos2o_DS2_EIG
 Non-SCF case, kpt    1 (  0.00000  0.00000  0.00000), residuals and eigenvalues=
  6.26E-13  6.05E-13  7.11E-13  6.42E-13
 -2.2369E+00 -1.3725E+00 -1.3622E+00 -1.3622E+00
 Non-SCF case, kpt    2 (  0.03333  0.03333  0.00000), residuals and eigenvalues=
  2.84E-13  2.51E-13  2.92E-13  7.93E-13
 -2.2361E+00 -1.3724E+00 -1.3627E+00 -1.3623E+00
 Non-SCF case, kpt    3 (  0.06667  0.06667  0.00000), residuals and eigenvalues=
  3.15E-13  3.13E-13  4.21E-13  2.64E-13
 -2.2360E+00 -1.3722E+00 -1.3638E+00 -1.3626E+00
 Non-SCF case, kpt    4 (  0.10000  0.10000  0.00000), residuals and eigenvalues=
  5.12E-13  8.81E-13  5.91E-13  5.86E-13
 -2.2355E+00 -1.3719E+00 -1.3656E+00 -1.3631E+00
 Non-SCF case, kpt    5 (  0.13333  0.13333  0.00000), residuals and eigenvalues=
  3.87E-13  5.81E-13  9.41E-13  3.72E-13
 -2.2355E+00 -1.3715E+00 -1.3677E+00 -1.3639E+00
 Non-SCF case, kpt    6 (  0.16667  0.16667  0.00000), residuals and eigenvalues=
  5.03E-13  2.31E-13  5.03E-13  4.60E-13
 -2.2329E+00 -1.3711E+00 -1.3697E+00 -1.3648E+00
 Non-SCF case, kpt    7 (  0.20000  0.20000  0.00000), residuals and eigenvalues=
  4.99E-13  5.10E-13  5.50E-13  5.19E-13
 -2.2322E+00 -1.3713E+00 -1.3708E+00 -1.3659E+00
 Non-SCF case, kpt    8 (  0.23333  0.23333  0.00000), residuals and eigenvalues=
  9.05E-13  6.45E-13  2.29E-13  4.81E-13
 -2.2322E+00 -1.3724E+00 -1.3704E+00 -1.3671E+00
 Non-SCF case, kpt    9 (  0.26667  0.26667  0.00000), residuals and eigenvalues=
  6.29E-13  3.20E-13  5.72E-13  5.17E-13
 -2.2288E+00 -1.3727E+00 -1.3702E+00 -1.3684E+00
 Non-SCF case, kpt   10 (  0.30000  0.30000  0.00000), residuals and eigenvalues=
  3.77E-13  4.09E-13  3.79E-13  9.82E-13
 -2.2286E+00 -1.3723E+00 -1.3701E+00 -1.3698E+00
 Non-SCF case, kpt   11 (  0.33333  0.33333  0.00000), residuals and eigenvalues=
  4.99E-13  9.52E-13  7.46E-13  2.14E-13
 -2.2268E+00 -1.3715E+00 -1.3709E+00 -1.3701E+00
 Non-SCF case, kpt   12 (  0.30000  0.30000  0.00000), residuals and eigenvalues=
  3.77E-13  4.09E-13  3.79E-13  9.82E-13
 -2.2286E+00 -1.3723E+00 -1.3701E+00 -1.3698E+00
 Non-SCF case, kpt   13 (  0.26667  0.26667  0.00000), residuals and eigenvalues=
  6.29E-13  3.20E-13  5.72E-13  5.17E-13
 -2.2288E+00 -1.3727E+00 -1.3702E+00 -1.3684E+00
 Non-SCF case, kpt   14 (  0.23333  0.23333  0.00000), residuals and eigenvalues=
  9.05E-13  6.45E-13  2.29E-13  4.81E-13
 -2.2322E+00 -1.3724E+00 -1.3704E+00 -1.3671E+00
 Non-SCF case, kpt   15 (  0.20000  0.20000  0.00000), residuals and eigenvalues=
  4.99E-13  5.10E-13  5.50E-13  5.19E-13
 -2.2322E+00 -1.3713E+00 -1.3708E+00 -1.3659E+00
 Non-SCF case, kpt   16 (  0.16667  0.16667  0.00000), residuals and eigenvalues=
  5.03E-13  2.31E-13  5.03E-13  4.60E-13
 -2.2329E+00 -1.3711E+00 -1.3697E+00 -1.3648E+00
 Non-SCF case, kpt   17 (  0.13333  0.13333  0.00000), residuals and eigenvalues=
  3.87E-13  5.81E-13  9.41E-13  3.72E-13
 -2.2355E+00 -1.3715E+00 -1.3677E+00 -1.3639E+00
 Non-SCF case, kpt   18 (  0.10000  0.10000  0.00000), residuals and eigenvalues=
  5.12E-13  8.81E-13  5.91E-13  5.86E-13
 -2.2355E+00 -1.3719E+00 -1.3656E+00 -1.3631E+00
 Non-SCF case, kpt   19 (  0.06667  0.06667  0.00000), residuals and eigenvalues=
  3.15E-13  3.13E-13  4.21E-13  2.64E-13
 -2.2360E+00 -1.3722E+00 -1.3638E+00 -1.3626E+00
 Non-SCF case, kpt   20 (  0.03333  0.03333  0.00000), residuals and eigenvalues=
  2.84E-13  2.51E-13  2.92E-13  7.93E-13
 -2.2361E+00 -1.3724E+00 -1.3627E+00 -1.3623E+00
 Non-SCF case, kpt   21 (  0.00000  0.00000  0.00000), residuals and eigenvalues=
  6.26E-13  6.05E-13  7.11E-13  6.42E-13
 -2.2369E+00 -1.3725E+00 -1.3622E+00 -1.3622E+00
 

--- !ResultsGS
iteration_state: {dtset: 2, }
comment   : Summary of ground state results
lattice_vectors:
- [  2.9763187,  -5.1551351,   0.0000000, ]
- [  2.9763187,   5.1551351,   0.0000000, ]
- [  0.0000000,   0.0000000,  37.7945227, ]
lattice_lengths: [   5.95264,    5.95264,   37.79452, ]
lattice_angles: [ 90.000,  90.000, 120.000, ] # degrees, (23, 13, 12)
lattice_volume:   1.1597873E+03
convergence: {deltae:  0.000E+00, res2:  0.000E+00, residm:  9.516E-13, diffor:  0.000E+00, }
etotal    :  -9.18525358E+01
entropy   :   0.00000000E+00
fermie    :  -5.73161290E-02
cartesian_stress_tensor: null
pressure_GPa: null
xred      :
- [  3.3333E-01,   6.6667E-01,   0.0000E+00, Mo]
- [  6.6667E-01,   3.3333E-01,  -9.1944E-02,  S]
- [  6.6667E-01,   3.3333E-01,   9.1944E-02,  S]
cartesian_forces: null
force_length_stats: {min: null, max: null, mean: null, }
...

 Integrated electronic density in atomic spheres:
 ------------------------------------------------
 Atom  Sphere_radius  Integrated_density
    1        2.00000         10.37238136
    2        2.00000          3.83131304
    3        2.00000          3.83137151
================================================================================
 
 ----iterations are completed or convergence reached----
 
 Mean square residual over all n,k,spin=   50.036E-14; max=  95.162E-14
 reduced coordinates (array xred) for    3 atoms
       0.333333333333      0.666666666667      0.000000000000
       0.666666666667      0.333333333333     -0.091944235000
       0.666666666667      0.333333333333      0.091944235000
 
 cartesian coordinates (angstrom) at end:
    1      1.57500000000000     0.90932667396900     0.00000000000000
    2      1.57500000000000    -0.90932667396900    -1.83888470000000
    3      1.57500000000000    -0.90932667396900     1.83888470000000
 length scales=  5.952637318590  5.952637318590 37.794522657713 bohr
              =  3.150000000000  3.150000000000 20.000000000000 angstroms
 prteigrs : about to open file mos2o_DS2_EIG
 Eigenvalues (   eV  ) for nkpt=  21  k points:
 kpt#   1, nband=  4, wtk=  1.00000, kpt=  0.0000  0.0000  0.0000 (reduced coord)
 -60.86925  -37.34772  -37.06867  -37.06855
 kpt#   2, nband=  4, wtk=  1.00000, kpt=  0.0333  0.0333  0.0000 (reduced coord)
 -60.84779  -37.34564  -37.07969  -37.07119
 kpt#   3, nband=  4, wtk=  1.00000, kpt=  0.0667  0.0667  0.0000 (reduced coord)
 -60.84514  -37.34002  -37.11211  -37.07942
 kpt#   4, nband=  4, wtk=  1.00000, kpt=  0.1000  0.1000  0.0000 (reduced coord)
 -60.83052  -37.33168  -37.16008  -37.09317
 kpt#   5, nband=  4, wtk=  1.00000, kpt=  0.1333  0.1333  0.0000 (reduced coord)
 -60.83112  -37.32152  -37.21582  -37.11298
 kpt#   6, nband=  4, wtk=  1.00000, kpt=  0.1667  0.1667  0.0000 (reduced coord)
 -60.75904  -37.31032  -37.27059  -37.13733
 kpt#   7, nband=  4, wtk=  1.00000, kpt=  0.2000  0.2000  0.0000 (reduced coord)
 -60.74217  -37.31616  -37.30009  -37.16720
 kpt#   8, nband=  4, wtk=  1.00000, kpt=  0.2333  0.2333  0.0000 (reduced coord)
 -60.74085  -37.34554  -37.29166  -37.20084
 kpt#   9, nband=  4, wtk=  1.00000, kpt=  0.2667  0.2667  0.0000 (reduced coord)
 -60.64986  -37.35362  -37.28509  -37.23696
 kpt#  10, nband=  4, wtk=  1.00000, kpt=  0.3000  0.3000  0.0000 (reduced coord)
 -60.64271  -37.34223  -37.28184  -37.27418
 kpt#  11, nband=  4, wtk=  1.00000, kpt=  0.3333  0.3333  0.0000 (reduced coord)
 -60.59435  -37.32011  -37.30338  -37.28096
 kpt#  12, nband=  4, wtk=  1.00000, kpt=  0.3000  0.3000  0.0000 (reduced coord)
 -60.64271  -37.34223  -37.28184  -37.27418
 kpt#  13, nband=  4, wtk=  1.00000, kpt=  0.2667  0.2667  0.0000 (reduced coord)
 -60.64986  -37.35362  -37.28509  -37.23696
 kpt#  14, nband=  4, wtk=  1.00000, kpt=  0.2333  0.2333  0.0000 (reduced coord)
 -60.74085  -37.34554  -37.29166  -37.20084
 kpt#  15, nband=  4, wtk=  1.00000, kpt=  0.2000  0.2000  0.0000 (reduced coord)
 -60.74217  -37.31616  -37.30009  -37.16720
 kpt#  16, nband=  4, wtk=  1.00000, kpt=  0.1667  0.1667  0.0000 (reduced coord)
 -60.75904  -37.31032  -37.27059  -37.13733
 kpt#  17, nband=  4, wtk=  1.00000, kpt=  0.1333  0.1333  0.0000 (reduced coord)
 -60.83112  -37.32152  -37.21582  -37.11298
 kpt#  18, nband=  4, wtk=  1.00000, kpt=  0.1000  0.1000  0.0000 (reduced coord)
 -60.83052  -37.33168  -37.16008  -37.09317
 kpt#  19, nband=  4, wtk=  1.00000, kpt=  0.0667  0.0667  0.0000 (reduced coord)
 -60.84514  -37.34002  -37.11211  -37.07942
 kpt#  20, nband=  4, wtk=  1.00000, kpt=  0.0333  0.0333  0.0000 (reduced coord)
 -60.84779  -37.34564  -37.07969  -37.07119
 kpt#  21, nband=  4, wtk=  1.00000, kpt=  0.0000  0.0000  0.0000 (reduced coord)
 -60.86925  -37.34772  -37.06867  -37.06855
 
== END DATASET(S) ==============================================================
================================================================================
  
 -outvars: echo values of variables after computation  --------
            acell      5.9526373186E+00  5.9526373186E+00  3.7794522658E+01 Bohr
              amu      9.59400000E+01  3.20660000E+01
      chksymbreak           0
             ecut      1.20000000E+01 Hartree
           enunit1          0
           enunit2          1
           etotal1    -9.1852535751E+01
            fcart1    -2.6875204325E-07  1.6429477868E-06 -7.3268886865E-05
                      -6.5770170021E-07 -2.8166101117E-06  6.7808099205E-02
                       9.2645374346E-07  1.1736623250E-06 -6.7734830318E-02
-          fftalg         512
           getden1          0
           getden2         -1
             iscf1          7
             iscf2         -2
           istwfk1       4    0    0    5    0    0    0    0    0    0
                         0    0    0    0    0    0    8    0    0    9
           istwfk2       2    0    0    0    0    0    0    0    0    0
                         0    0    0    0    0    0    0    0    0    0
                         2
              ixc          11
           jdtset        1    2
              kpt1     0.00000000E+00  0.00000000E+00  5.00000000E-01
                       1.66666667E-01  0.00000000E+00  5.00000000E-01
                       3.33333333E-01  0.00000000E+00  5.00000000E-01
                       5.00000000E-01  0.00000000E+00  5.00000000E-01
                       0.00000000E+00  1.66666667E-01  5.00000000E-01
                       1.66666667E-01  1.66666667E-01  5.00000000E-01
                       3.33333333E-01  1.66666667E-01  5.00000000E-01
                       5.00000000E-01  1.66666667E-01  5.00000000E-01
                      -3.33333333E-01  1.66666667E-01  5.00000000E-01
                      -1.66666667E-01  1.66666667E-01  5.00000000E-01
                       0.00000000E+00  3.33333333E-01  5.00000000E-01
                       1.66666667E-01  3.33333333E-01  5.00000000E-01
                       3.33333333E-01  3.33333333E-01  5.00000000E-01
                       5.00000000E-01  3.33333333E-01  5.00000000E-01
                      -3.33333333E-01  3.33333333E-01  5.00000000E-01
                      -1.66666667E-01  3.33333333E-01  5.00000000E-01
                       0.00000000E+00  5.00000000E-01  5.00000000E-01
                       1.66666667E-01  5.00000000E-01  5.00000000E-01
                       3.33333333E-01  5.00000000E-01  5.00000000E-01
                       5.00000000E-01  5.00000000E-01  5.00000000E-01
              kpt2     0.00000000E+00  0.00000000E+00  0.00000000E+00
                       3.33333333E-02  3.33333333E-02  0.00000000E+00
                       6.66666667E-02  6.66666667E-02  0.00000000E+00
                       1.00000000E-01  1.00000000E-01  0.00000000E+00
                       1.33333333E-01  1.33333333E-01  0.00000000E+00
                       1.66666667E-01  1.66666667E-01  0.00000000E+00
                       2.00000000E-01  2.00000000E-01  0.00000000E+00
                       2.33333333E-01  2.33333333E-01  0.00000000E+00
                       2.66666667E-01  2.66666667E-01  0.00000000E+00
                       3.00000000E-01  3.00000000E-01  0.00000000E+00
                       3.33333333E-01  3.33333333E-01  0.00000000E+00
                       3.00000000E-01  3.00000000E-01  0.00000000E+00
                       2.66666667E-01  2.66666667E-01  0.00000000E+00
                       2.33333333E-01  2.33333333E-01  0.00000000E+00
                       2.00000000E-01  2.00000000E-01  0.00000000E+00
                       1.66666667E-01  1.66666667E-01  0.00000000E+00
                       1.33333333E-01  1.33333333E-01  0.00000000E+00
                       1.00000000E-01  1.00000000E-01  0.00000000E+00
                       6.66666667E-02  6.66666667E-02  0.00000000E+00
                       3.33333333E-02  3.33333333E-02  0.00000000E+00
                       0.00000000E+00  0.00000000E+00  0.00000000E+00
           kptopt1          1
           kptopt2         -2
         kptrlatt        6    0    0      0    6    0      0    0    1
          kptrlen1     3.57158239E+01
          kptrlen2     3.00000000E+01
P           mkmem1         20
P           mkmem2         21
            natom           3
            nband1         14
            nband2          4
           nbdbuf1          0
           nbdbuf2          2
           ndtset           2
           ndivsm1          0
           ndivsm2         10
            ngfft          20      20     120
             nkpt1         20
             nkpt2         21
            nstep          10
             nsym           1
           ntypat           2
              occ      2.000000  2.000000  2.000000  2.000000  2.000000  2.000000
                       2.000000  2.000000  2.000000  2.000000  2.000000  2.000000
                       2.000000  0.000000
            rprim      5.0000000000E-01 -8.6602540378E-01  0.0000000000E+00
                       5.0000000000E-01  8.6602540378E-01  0.0000000000E+00
                       0.0000000000E+00  0.0000000000E+00  1.0000000000E+00
           shiftk1     0.00000000E+00  0.00000000E+00  5.00000000E-01
           shiftk2     5.00000000E-01  5.00000000E-01  5.00000000E-01
          spgroup           1
           strten1     7.9250146425E-04  7.9239841874E-04  1.1123813054E-03
                       2.4829772281E-08 -3.7324020753E-08  3.6894322083E-08
           toldfe1     1.00000000E-06 Hartree
           toldfe2     0.00000000E+00 Hartree
           tolwfr1     0.00000000E+00
           tolwfr2     1.00000000E-12
            typat      1  2  2
              wtk1       0.02778    0.05556    0.05556    0.02778    0.05556    0.05556
                         0.05556    0.05556    0.05556    0.05556    0.05556    0.05556
                         0.05556    0.05556    0.05556    0.05556    0.02778    0.05556
                         0.05556    0.02778
              wtk2       1.00000    1.00000    1.00000    1.00000    1.00000    1.00000
                         1.00000    1.00000    1.00000    1.00000    1.00000    1.00000
                         1.00000    1.00000    1.00000    1.00000    1.00000    1.00000
                         1.00000    1.00000    1.00000
           xangst      1.5750000000E+00  9.0932667397E-01  0.0000000000E+00
                       1.5750000000E+00 -9.0932667397E-01 -1.8388847000E+00
                       1.5750000000E+00 -9.0932667397E-01  1.8388847000E+00
            xcart      2.9763186593E+00  1.7183783791E+00  0.0000000000E+00
                       2.9763186593E+00 -1.7183783791E+00 -3.4749884730E+00
                       2.9763186593E+00 -1.7183783791E+00  3.4749884730E+00
             xred      3.3333333333E-01  6.6666666667E-01  0.0000000000E+00
                       6.6666666667E-01  3.3333333333E-01 -9.1944235000E-02
                       6.6666666667E-01  3.3333333333E-01  9.1944235000E-02
            znucl       42.00000   16.00000
 
================================================================================


- Timing analysis has been suppressed with timopt=0



================================================================================

 Suggested references for the acknowledgment of ABINIT usage.

 The users of ABINIT have little formal obligations with respect to the ABINIT group
 (those specified in the GNU General Public License, http://www.gnu.org/copyleft/gpl.txt).
 However, it is common practice in the scientific literature,
 to acknowledge the efforts of people that have made the research possible.
 In this spirit, please find below suggested citations of work written by ABINIT developers,
 corresponding to implementations inside of ABINIT that you have used in the present run.
 Note also that it will be of great value to readers of publications presenting these results,
 to read papers enabling them to understand the theoretical formalism and details
 of the ABINIT implementation.
 For information on why they are suggested, see also https://docs.abinit.org/theory/acknowledgments.
-
- [1] The Abinit project: Impact, environment and recent developments.
- Computer Phys. Comm. 248, 107042 (2020).
- X.Gonze, B. Amadon, G. Antonius, F.Arnardi, L.Baguet, J.-M.Beuken,
- J.Bieder, F.Bottin, J.Bouchet, E.Bousquet, N.Brouwer, F.Bruneval,
- G.Brunin, T.Cavignac, J.-B. Charraud, Wei Chen, M.Cote, S.Cottenier,
- J.Denier, G.Geneste, Ph.Ghosez, M.Giantomassi, Y.Gillet, O.Gingras,
- D.R.Hamann, G.Hautier, Xu He, N.Helbig, N.Holzwarth, Y.Jia, F.Jollet,
- W.Lafargue-Dit-Hauret, K.Lejaeghere, M.A.L.Marques, A.Martin, C.Martins,
- H.P.C. Miranda, F.Naccarato, K. Persson, G.Petretto, V.Planes, Y.Pouillon,
- S.Prokhorenko, F.Ricci, G.-M.Rignanese, A.H.Romero, M.M.Schmitt, M.Torrent,
- M.J.van Setten, B.Van Troeye, M.J.Verstraete, G.Zerah and J.W.Zwanzig
- Comment: the fifth generic paper describing the ABINIT project.
- Note that a version of this paper, that is not formatted for Computer Phys. Comm. 
- is available at https://www.abinit.org/sites/default/files/ABINIT20.pdf .
- The licence allows the authors to put it on the Web.
- DOI and bibtex: see https://docs.abinit.org/theory/bibliography/#gonze2020
-
- [2] Optimized norm-conserving Vanderbilt pseudopotentials.
- D.R. Hamann, Phys. Rev. B 88, 085117 (2013).
- Comment: Some pseudopotential generated using the ONCVPSP code were used.
- DOI and bibtex: see https://docs.abinit.org/theory/bibliography/#hamann2013
-
- [3] ABINIT: Overview, and focus on selected capabilities
- J. Chem. Phys. 152, 124102 (2020).
- A. Romero, D.C. Allan, B. Amadon, G. Antonius, T. Applencourt, L.Baguet,
- J.Bieder, F.Bottin, J.Bouchet, E.Bousquet, F.Bruneval,
- G.Brunin, D.Caliste, M.Cote,
- J.Denier, C. Dreyer, Ph.Ghosez, M.Giantomassi, Y.Gillet, O.Gingras,
- D.R.Hamann, G.Hautier, F.Jollet, G. Jomard,
- A.Martin, 
- H.P.C. Miranda, F.Naccarato, G.Petretto, N.A. Pike, V.Planes,
- S.Prokhorenko, T. Rangel, F.Ricci, G.-M.Rignanese, M.Royo, M.Stengel, M.Torrent,
- M.J.van Setten, B.Van Troeye, M.J.Verstraete, J.Wiktor, J.W.Zwanziger, and X.Gonze.
- Comment: a global overview of ABINIT, with focus on selected capabilities .
- Note that a version of this paper, that is not formatted for J. Chem. Phys 
- is available at https://www.abinit.org/sites/default/files/ABINIT20_JPC.pdf .
- The licence allows the authors to put it on the Web.
- DOI and bibtex: see https://docs.abinit.org/theory/bibliography/#romero2020
-
- [4] Recent developments in the ABINIT software package.
- Computer Phys. Comm. 205, 106 (2016).
- X.Gonze, F.Jollet, F.Abreu Araujo, D.Adams, B.Amadon, T.Applencourt,
- C.Audouze, J.-M.Beuken, J.Bieder, A.Bokhanchuk, E.Bousquet, F.Bruneval
- D.Caliste, M.Cote, F.Dahm, F.Da Pieve, M.Delaveau, M.Di Gennaro,
- B.Dorado, C.Espejo, G.Geneste, L.Genovese, A.Gerossier, M.Giantomassi,
- Y.Gillet, D.R.Hamann, L.He, G.Jomard, J.Laflamme Janssen, S.Le Roux,
- A.Levitt, A.Lherbier, F.Liu, I.Lukacevic, A.Martin, C.Martins,
- M.J.T.Oliveira, S.Ponce, Y.Pouillon, T.Rangel, G.-M.Rignanese,
- A.H.Romero, B.Rousseau, O.Rubel, A.A.Shukri, M.Stankovski, M.Torrent,
- M.J.Van Setten, B.Van Troeye, M.J.Verstraete, D.Waroquier, J.Wiktor,
- B.Xu, A.Zhou, J.W.Zwanziger.
- Comment: the fourth generic paper describing the ABINIT project.
- Note that a version of this paper, that is not formatted for Computer Phys. Comm. 
- is available at https://www.abinit.org/sites/default/files/ABINIT16.pdf .
- The licence allows the authors to put it on the Web.
- DOI and bibtex: see https://docs.abinit.org/theory/bibliography/#gonze2016
-
- And optionally:
-
- [5] ABINIT: First-principles approach of materials and nanosystem properties.
- Computer Phys. Comm. 180, 2582-2615 (2009).
- X. Gonze, B. Amadon, P.-M. Anglade, J.-M. Beuken, F. Bottin, P. Boulanger, F. Bruneval,
- D. Caliste, R. Caracas, M. Cote, T. Deutsch, L. Genovese, Ph. Ghosez, M. Giantomassi
- S. Goedecker, D.R. Hamann, P. Hermet, F. Jollet, G. Jomard, S. Leroux, M. Mancini, S. Mazevet,
- M.J.T. Oliveira, G. Onida, Y. Pouillon, T. Rangel, G.-M. Rignanese, D. Sangalli, R. Shaltaf,
- M. Torrent, M.J. Verstraete, G. Zerah, J.W. Zwanziger
- Comment: the third generic paper describing the ABINIT project.
- Note that a version of this paper, that is not formatted for Computer Phys. Comm. 
- is available at https://www.abinit.org/sites/default/files/ABINIT_CPC_v10.pdf .
- The licence allows the authors to put it on the Web.
- DOI and bibtex: see https://docs.abinit.org/theory/bibliography/#gonze2009
-
- Proc.   0 individual time (sec): cpu=         20.9  wall=         33.4
 
================================================================================
 
 Calculation completed.
.Delivered   4 WARNINGs and  10 COMMENTs to log file.
+Overall time at end (sec) : cpu=         20.9  wall=         33.4
