
.Version 9.10.3 of ABINIT 
.(MPI version, prepared for a x86_64_linux_intel2021.6 computer) 

.Copyright (C) 1998-2022 ABINIT group . 
 ABINIT comes with ABSOLUTELY NO WARRANTY.
 It is free software, and you are welcome to redistribute it
 under certain conditions (GNU General Public License,
 see ~abinit/COPYING or http://www.gnu.org/copyleft/gpl.txt).

 ABINIT is a project of the Universite Catholique de Louvain,
 Corning Inc. and other collaborators, see ~abinit/doc/developers/contributors.txt .
 Please read https://docs.abinit.org/theory/acknowledgments for suggested
 acknowledgments of the ABINIT effort.
 For more information, see https://www.abinit.org .

.Starting date : Wed  7 May 2025.
- ( at 08h21 )
  
- input  file    -> mos2.abi
- output file    -> mos2.abo
- root for input  files -> mos2i
- root for output files -> mos2o
 
 
 DATASET    1 : space group P1 (#  1); Bravais aP (primitive triclinic)
================================================================================
 Values of the parameters that define the memory need for DATASET  1.
     intxc =       0    ionmov =       0      iscf =       7    lmnmax =       6
     lnmax =       6     mgfft =     160  mpssoang =       3    mqgrid =    7609
     natom =       3  nloc_mem =       1    nspden =       1   nspinor =       1
    nsppol =       1      nsym =       1    n1xccc =    2501    ntypat =       2
    occopt =       1   xclevel =       2
-    mband =          14        mffmem =           1         mkmem =          10
       mpw =        4986          nfft =       92160          nkpt =          10
================================================================================
P This job should need less than                      41.231 Mbytes of memory.
  Rough estimation (10% accuracy) of disk space for files :
_ WF disk file :     10.653 Mbytes ; DEN or POT disk file :      0.705 Mbytes.
================================================================================
 
 
 DATASET    2 : space group P1 (#  1); Bravais aP (primitive triclinic)
================================================================================
 Values of the parameters that define the memory need for DATASET  2.
     intxc =       0    ionmov =       0      iscf =      -2    lmnmax =       6
     lnmax =       6     mgfft =     160  mpssoang =       3    mqgrid =    7609
     natom =       3  nloc_mem =       1    nspden =       1   nspinor =       1
    nsppol =       1      nsym =       1    n1xccc =    2501    ntypat =       2
    occopt =       1   xclevel =       2
-    mband =           8        mffmem =           1         mkmem =          68
       mpw =        5028          nfft =       92160          nkpt =          68
================================================================================
P This job should need less than                      64.487 Mbytes of memory.
  Rough estimation (10% accuracy) of disk space for files :
_ WF disk file :     41.738 Mbytes ; DEN or POT disk file :      0.705 Mbytes.
================================================================================
 
--------------------------------------------------------------------------------
------------- Echo of variables that govern the present computation ------------
--------------------------------------------------------------------------------
-
- outvars: echo of selected default values                                      
-   iomode0 =  0 , fftalg0 =512 , wfoptalg0 =  0
-
- outvars: echo of global parameters not present in the input file              
-  max_nthreads =    0
-
 -outvars: echo values of preprocessed input variables --------
            acell      5.9526373186E+00  5.9526373186E+00  3.7794522658E+01 Bohr
              amu      9.59400000E+01  3.20660000E+01
      chksymbreak           0
             ecut      2.00000000E+01 Hartree
           enunit1          0
           enunit2          1
-          fftalg         512
           getden1          0
           getden2         -1
             iscf1          7
             iscf2         -2
           istwfk1       4    0    5    0    0    0    0    8    0    9
           istwfk2       2    0    0    0    0    0    0    0    0    0
                         0    0    0    0    0    0    0    3    0    0
                         0    0    0    0    0    0    0    0    0    0
                         0    0    0    0    0    0    0    0    0    0
                         0    0    0    0    0    0    0    0    0    0
                       outvar_i_n : Printing only first  50 k-points.
              ixc          11
           jdtset        1    2
              kpt1     0.00000000E+00  0.00000000E+00  5.00000000E-01
                       2.50000000E-01  0.00000000E+00  5.00000000E-01
                       5.00000000E-01  0.00000000E+00  5.00000000E-01
                       0.00000000E+00  2.50000000E-01  5.00000000E-01
                       2.50000000E-01  2.50000000E-01  5.00000000E-01
                       5.00000000E-01  2.50000000E-01  5.00000000E-01
                      -2.50000000E-01  2.50000000E-01  5.00000000E-01
                       0.00000000E+00  5.00000000E-01  5.00000000E-01
                       2.50000000E-01  5.00000000E-01  5.00000000E-01
                       5.00000000E-01  5.00000000E-01  5.00000000E-01
              kpt2     0.00000000E+00  0.00000000E+00  0.00000000E+00
                       2.94117647E-02  0.00000000E+00  0.00000000E+00
                       5.88235294E-02  0.00000000E+00  0.00000000E+00
                       8.82352941E-02  0.00000000E+00  0.00000000E+00
                       1.17647059E-01  0.00000000E+00  0.00000000E+00
                       1.47058824E-01  0.00000000E+00  0.00000000E+00
                       1.76470588E-01  0.00000000E+00  0.00000000E+00
                       2.05882353E-01  0.00000000E+00  0.00000000E+00
                       2.35294118E-01  0.00000000E+00  0.00000000E+00
                       2.64705882E-01  0.00000000E+00  0.00000000E+00
                       2.94117647E-01  0.00000000E+00  0.00000000E+00
                       3.23529412E-01  0.00000000E+00  0.00000000E+00
                       3.52941176E-01  0.00000000E+00  0.00000000E+00
                       3.82352941E-01  0.00000000E+00  0.00000000E+00
                       4.11764706E-01  0.00000000E+00  0.00000000E+00
                       4.41176471E-01  0.00000000E+00  0.00000000E+00
                       4.70588235E-01  0.00000000E+00  0.00000000E+00
                       5.00000000E-01  0.00000000E+00  0.00000000E+00
                       4.83333333E-01  3.33333333E-02  0.00000000E+00
                       4.66666667E-01  6.66666667E-02  0.00000000E+00
                       4.50000000E-01  1.00000000E-01  0.00000000E+00
                       4.33333333E-01  1.33333333E-01  0.00000000E+00
                       4.16666667E-01  1.66666667E-01  0.00000000E+00
                       4.00000000E-01  2.00000000E-01  0.00000000E+00
                       3.83333333E-01  2.33333333E-01  0.00000000E+00
                       3.66666667E-01  2.66666667E-01  0.00000000E+00
                       3.50000000E-01  3.00000000E-01  0.00000000E+00
                       3.33333333E-01  3.33333333E-01  0.00000000E+00
                       3.50000000E-01  3.50000000E-01  2.50000000E-02
                       3.66666667E-01  3.66666667E-01  5.00000000E-02
                       3.83333333E-01  3.83333333E-01  7.50000000E-02
                       4.00000000E-01  4.00000000E-01  1.00000000E-01
                       4.16666667E-01  4.16666667E-01  1.25000000E-01
                       4.33333333E-01  4.33333333E-01  1.50000000E-01
                       4.50000000E-01  4.50000000E-01  1.75000000E-01
                       4.66666667E-01  4.66666667E-01  2.00000000E-01
                       4.83333333E-01  4.83333333E-01  2.25000000E-01
                       5.00000000E-01  5.00000000E-01  2.50000000E-01
                       5.16666667E-01  5.16666667E-01  2.75000000E-01
                       5.33333333E-01  5.33333333E-01  3.00000000E-01
                       5.50000000E-01  5.50000000E-01  3.25000000E-01
                       5.66666667E-01  5.66666667E-01  3.50000000E-01
                       5.83333333E-01  5.83333333E-01  3.75000000E-01
                       6.00000000E-01  6.00000000E-01  4.00000000E-01
                       6.16666667E-01  6.16666667E-01  4.25000000E-01
                       6.33333333E-01  6.33333333E-01  4.50000000E-01
                       6.50000000E-01  6.50000000E-01  4.75000000E-01
                       6.66666667E-01  6.66666667E-01  5.00000000E-01
                       6.83333333E-01  6.83333333E-01  5.25000000E-01
                       7.00000000E-01  7.00000000E-01  5.50000000E-01
                       outvar_i_n : Printing only first  50 k-points.
           kptopt1          1
           kptopt2         -3
         kptrlatt        4    0    0      0    4    0      0    0    1
          kptrlen1     2.38105493E+01
          kptrlen2     3.00000000E+01
P           mkmem1         10
P           mkmem2         68
            natom           3
            nband1         14
            nband2          8
           nbdbuf1          0
           nbdbuf2          2
           ndtset           2
           ndivsm1          0
           ndivsm2         10
            ngfft          24      24     160
             nkpt1         10
             nkpt2         68
            nstep          10
             nsym           1
           ntypat           2
              occ      2.000000  2.000000  2.000000  2.000000  2.000000  2.000000
                       2.000000  2.000000  2.000000  2.000000  2.000000  2.000000
                       2.000000  0.000000
            rprim      5.0000000000E-01 -8.6602540378E-01  0.0000000000E+00
                       5.0000000000E-01  8.6602540378E-01  0.0000000000E+00
                       0.0000000000E+00  0.0000000000E+00  1.0000000000E+00
           shiftk1     0.00000000E+00  0.00000000E+00  5.00000000E-01
           shiftk2     5.00000000E-01  5.00000000E-01  5.00000000E-01
          spgroup           1
           toldfe1     1.00000000E-08 Hartree
           toldfe2     0.00000000E+00 Hartree
           tolwfr1     0.00000000E+00
           tolwfr2     1.00000000E-12
            typat      1  2  2
              wtk1       0.06250    0.12500    0.06250    0.12500    0.12500    0.12500
                         0.12500    0.06250    0.12500    0.06250
              wtk2       1.00000    1.00000    1.00000    1.00000    1.00000    1.00000
                         1.00000    1.00000    1.00000    1.00000    1.00000    1.00000
                         1.00000    1.00000    1.00000    1.00000    1.00000    1.00000
                         1.00000    1.00000    1.00000    1.00000    1.00000    1.00000
                         1.00000    1.00000    1.00000    1.00000    1.00000    1.00000
                         1.00000    1.00000    1.00000    1.00000    1.00000    1.00000
                         1.00000    1.00000    1.00000    1.00000    1.00000    1.00000
                         1.00000    1.00000    1.00000    1.00000    1.00000    1.00000
                         1.00000    1.00000
                       outvars : Printing only first  50 k-points.
           xangst      1.5750000000E+00  9.0932667397E-01  0.0000000000E+00
                       1.5750000000E+00 -9.0932667397E-01 -1.8388847000E+00
                       1.5750000000E+00 -9.0932667397E-01  1.8388847000E+00
            xcart      2.9763186593E+00  1.7183783791E+00  0.0000000000E+00
                       2.9763186593E+00 -1.7183783791E+00 -3.4749884730E+00
                       2.9763186593E+00 -1.7183783791E+00  3.4749884730E+00
             xred      3.3333333333E-01  6.6666666667E-01  0.0000000000E+00
                       6.6666666667E-01  3.3333333333E-01 -9.1944235000E-02
                       6.6666666667E-01  3.3333333333E-01  9.1944235000E-02
            znucl       42.00000   16.00000
 
================================================================================
 
 chkinp: Checking input parameters for consistency, jdtset=   1.
 
 chkinp: Checking input parameters for consistency, jdtset=   2.
 
================================================================================
== DATASET  1 ==================================================================
-   mpi_nproc: 1, omp_nthreads: -1 (-1 if OMP is not activated)
 

--- !DatasetInfo
iteration_state: {dtset: 1, }
dimensions: {natom: 3, nkpt: 10, mband: 14, nsppol: 1, nspinor: 1, nspden: 1, mpw: 4986, }
cutoff_energies: {ecut:  20.0, pawecutdg:  -1.0, }
electrons: {nelect:   2.60000000E+01, charge:   0.00000000E+00, occopt:   1.00000000E+00, tsmear:   1.00000000E-02, }
meta: {optdriver: 0, ionmov: 0, optcell: 0, iscf: 7, paral_kgb: 0, }
...

 Exchange-correlation functional for the present dataset will be:
  GGA: Perdew-Burke-Ernzerhof functional - ixc=11
 Citation for XC functional:
  J.P.Perdew, K.Burke, M.Ernzerhof, PRL 77, 3865 (1996)
 
 Real(R)+Recip(G) space primitive vectors, cartesian coordinates (Bohr,Bohr^-1):
 R(1)=  2.9763187 -5.1551351  0.0000000  G(1)=  0.1679928 -0.0969907  0.0000000
 R(2)=  2.9763187  5.1551351  0.0000000  G(2)=  0.1679928  0.0969907  0.0000000
 R(3)=  0.0000000  0.0000000 37.7945227  G(3)=  0.0000000  0.0000000  0.0264589
 Unit cell volume ucvol=  1.1597873E+03 bohr^3
 Angles (23,13,12)=  9.00000000E+01  9.00000000E+01  1.20000000E+02 degrees
 
 getcut: wavevector=  0.0000  0.0000  0.0000  ngfft=  24  24 160
         ecut(hartree)=     20.000   => boxcut(ratio)=   2.00273
 
--- Pseudopotential description ------------------------------------------------
- pspini: atom type   1  psp file is ./persudo/Mo.psp8
- pspatm: opening atomic psp file    ./persudo/Mo.psp8
- Mo    ONCVPSP-3.2.3.1  r_core=   1.45541   1.45541   1.35488
- 42.00000  14.00000    170510                znucl, zion, pspdat
    8   11    2    4       600   0.00000      pspcod,pspxc,lmax,lloc,mmax,r2well
    5.99000000000000    3.00000000000000    0.00000000000000   rchrg,fchrg,qchrg
     nproj     2     2     2
     extension_switch     1
  pspatm : epsatm=   15.95693586
         --- l  ekb(1:nproj) -->
             0   13.833287    1.350687
             1    8.015347    1.134034
             2    2.765699    0.969071
 pspatm: atomic psp has been read  and splines computed
 
- pspini: atom type   2  psp file is ./persudo/S.psp8
- pspatm: opening atomic psp file    ./persudo/S.psp8
- S     ONCVPSP-4.0.1  r_core=   1.45687   1.45687   1.45687
- 16.00000   6.00000    220131                znucl, zion, pspdat
    8   11    2    4       600   0.00000      pspcod,pspxc,lmax,lloc,mmax,r2well
    5.99000000000000    6.00000000000000    0.00000000000000   rchrg,fchrg,qchrg
     nproj     2     2     2
     extension_switch     1
  pspatm : epsatm=    9.04179351
         --- l  ekb(1:nproj) -->
             0    6.774234    0.542270
             1    3.022426    0.737017
             2   -5.033160   -1.531047
 pspatm: atomic psp has been read  and splines computed
 
   8.85053595E+02                                ecore*ucvol(ha*bohr**3)
--------------------------------------------------------------------------------
 
_setup2: Arith. and geom. avg. npw (full set) are    4957.750    4957.657
 
================================================================================

--- !BeginCycle
iteration_state: {dtset: 1, }
solver: {iscf: 7, nstep: 10, nline: 4, wfoptalg: 0, }
tolerances: {toldfe: 1.00E-08, }
...
 
     iter   Etot(hartree)      deltaE(h)  residm     vres2
 ETOT  1  -91.422457479589    -9.142E+01 6.104E-02 5.364E+03
 ETOT  2  -86.306185714695     5.116E+00 5.179E-02 5.069E+04
 ETOT  3  -92.163752717545    -5.858E+00 4.380E-02 1.026E+03
 ETOT  4  -92.241563572932    -7.781E-02 8.720E-03 4.686E+02
 ETOT  5  -92.258255115448    -1.669E-02 1.588E-03 2.539E+02
 ETOT  6  -92.261142781188    -2.888E-03 8.962E-04 2.002E+02
 ETOT  7  -92.263838498078    -2.696E-03 3.875E-04 1.498E+02
 ETOT  8  -92.266900865510    -3.062E-03 2.664E-04 8.620E+01
 ETOT  9  -92.268362119110    -1.461E-03 1.736E-04 5.317E+01
 ETOT 10  -92.268989743426    -6.276E-04 9.120E-05 3.604E+01
 
 Cartesian components of stress tensor (hartree/bohr^3)
  sigma(1 1)=  2.91659928E-04  sigma(3 2)=  9.71001177E-08
  sigma(2 2)=  2.94334514E-04  sigma(3 1)= -1.30037981E-07
  sigma(3 3)=  5.81745671E-04  sigma(2 1)=  5.67380628E-07
 
 
 scprqt:  WARNING -
  nstep=   10 was not enough SCF cycles to converge;
  maximum energy difference=  6.276E-04 exceeds toldfe=  1.000E-08
 

--- !ResultsGS
iteration_state: {dtset: 1, }
comment   : Summary of ground state results
lattice_vectors:
- [  2.9763187,  -5.1551351,   0.0000000, ]
- [  2.9763187,   5.1551351,   0.0000000, ]
- [  0.0000000,   0.0000000,  37.7945227, ]
lattice_lengths: [   5.95264,    5.95264,   37.79452, ]
lattice_angles: [ 90.000,  90.000, 120.000, ] # degrees, (23, 13, 12)
lattice_volume:   1.1597873E+03
convergence: {deltae: -6.276E-04, res2:  3.604E+01, residm:  9.120E-05, diffor: null, }
etotal    :  -9.22689897E+01
entropy   :   0.00000000E+00
fermie    :  -8.06304958E-02
cartesian_stress_tensor: # hartree/bohr^3
- [  2.91659928E-04,   5.67380628E-07,  -1.30037981E-07, ]
- [  5.67380628E-07,   2.94334514E-04,   9.71001177E-08, ]
- [ -1.30037981E-07,   9.71001177E-08,   5.81745671E-04, ]
pressure_GPa:  -1.1452E+01
xred      :
- [  3.3333E-01,   6.6667E-01,   0.0000E+00, Mo]
- [  6.6667E-01,   3.3333E-01,  -9.1944E-02,  S]
- [  6.6667E-01,   3.3333E-01,   9.1944E-02,  S]
cartesian_forces: # hartree/bohr
- [  1.36292131E-04,  -3.23673124E-05,   1.22847080E-04, ]
- [ -7.52321484E-05,   1.96731783E-05,   7.29061405E-02, ]
- [ -6.10599827E-05,   1.26941340E-05,  -7.30289875E-02, ]
force_length_stats: {min:   1.86318526E-04, max:   7.30290142E-02, mean:   4.87071715E-02, }
...

 Integrated electronic density in atomic spheres:
 ------------------------------------------------
 Atom  Sphere_radius  Integrated_density
    1        2.00000         10.42008935
    2        2.00000          3.79602246
    3        2.00000          3.79527772
================================================================================
 
 ----iterations are completed or convergence reached----
 
 Mean square residual over all n,k,spin=   20.175E-07; max=  91.204E-06
 reduced coordinates (array xred) for    3 atoms
       0.333333333333      0.666666666667      0.000000000000
       0.666666666667      0.333333333333     -0.091944235000
       0.666666666667      0.333333333333      0.091944235000
 rms dE/dt=  1.3000E+00; max dE/dt=  2.7607E+00; dE/dt below (all hartree)
    1      -0.000598924223     -0.000225281593     -0.004028574695
    2       0.000298915199      0.000136006304     -2.754838405168
    3       0.000220756402      0.000129803340      2.760710096021
 
 cartesian coordinates (angstrom) at end:
    1      1.57500000000000     0.90932667396900     0.00000000000000
    2      1.57500000000000    -0.90932667396900    -1.83888470000000
    3      1.57500000000000    -0.90932667396900     1.83888470000000
 
 cartesian forces (hartree/bohr) at end:
    1      0.00013629213110    -0.00003236731236     0.00012284707998
    2     -0.00007523214836     0.00001967317833     0.07290614045256
    3     -0.00006105998274     0.00001269413403    -0.07302898753254
 frms,max,avg= 3.4397324E-02 7.3028988E-02   2.168E-06 -3.873E-06 -1.626E-05 h/b
 
 cartesian forces (eV/Angstrom) at end:
    1      0.00700842257811    -0.00166439398136     0.00631705030965
    2     -0.00386859228698     0.00101163541913     3.74898416145295
    3     -0.00313983029113     0.00065275856223    -3.75530121176260
 frms,max,avg= 1.7687814E+00 3.7553012E+00   1.115E-04 -1.991E-04 -8.359E-04 e/A
 length scales=  5.952637318590  5.952637318590 37.794522657713 bohr
              =  3.150000000000  3.150000000000 20.000000000000 angstroms
 prteigrs : about to open file mos2o_DS1_EIG
 Fermi (or HOMO) energy (hartree) =  -0.08063   Average Vxc (hartree)=  -0.15200
 Eigenvalues (hartree) for nkpt=  10  k points:
 kpt#   1, nband= 14, wtk=  0.06250, kpt=  0.0000  0.0000  0.5000 (reduced coord)
  -2.31098   -1.36056   -1.34921   -1.34906   -0.56764   -0.54400   -0.25893   -0.15832
  -0.12119   -0.12118   -0.10508   -0.08625   -0.08617    0.01704
 prteigrs : prtvol=0 or 1, do not print more k-points.
 

--- !EnergyTerms
iteration_state     : {dtset: 1, }
comment             : Components of total free energy in Hartree
kinetic             :  2.94895778507563E+01
hartree             :  2.66504333098809E+02
xc                  : -1.64443128944294E+01
Ewald energy        :  1.89573206011761E+02
psp_core            :  7.63117176066322E-01
local_psp           : -5.73776957713370E+02
non_local_psp       :  1.16220467269813E+01
total_energy        : -9.22689897434259E+01
total_energy_eV     : -2.51076689828277E+03
band_energy         : -1.70825466310855E+01
...

 
 Cartesian components of stress tensor (hartree/bohr^3)
  sigma(1 1)=  2.91659928E-04  sigma(3 2)=  9.71001177E-08
  sigma(2 2)=  2.94334514E-04  sigma(3 1)= -1.30037981E-07
  sigma(3 3)=  5.81745671E-04  sigma(2 1)=  5.67380628E-07
 
-Cartesian components of stress tensor (GPa)         [Pressure= -1.1452E+01 GPa]
- sigma(1 1)=  8.58092988E+00  sigma(3 2)=  2.85678361E-03
- sigma(2 2)=  8.65961891E+00  sigma(3 1)= -3.82584883E-03
- sigma(3 3)=  1.71155457E+01  sigma(2 1)=  1.66929116E-02
 
================================================================================
== DATASET  2 ==================================================================
-   mpi_nproc: 1, omp_nthreads: -1 (-1 if OMP is not activated)
 

--- !DatasetInfo
iteration_state: {dtset: 2, }
dimensions: {natom: 3, nkpt: 68, mband: 8, nsppol: 1, nspinor: 1, nspden: 1, mpw: 5028, }
cutoff_energies: {ecut:  20.0, pawecutdg:  -1.0, }
electrons: {nelect:   2.60000000E+01, charge:   0.00000000E+00, occopt:   1.00000000E+00, tsmear:   1.00000000E-02, }
meta: {optdriver: 0, ionmov: 0, optcell: 0, iscf: -2, paral_kgb: 0, }
...

 mkfilename : getden/=0, take file _DEN from output of DATASET   1.
 
 Exchange-correlation functional for the present dataset will be:
  GGA: Perdew-Burke-Ernzerhof functional - ixc=11
 Citation for XC functional:
  J.P.Perdew, K.Burke, M.Ernzerhof, PRL 77, 3865 (1996)
 
 Real(R)+Recip(G) space primitive vectors, cartesian coordinates (Bohr,Bohr^-1):
 R(1)=  2.9763187 -5.1551351  0.0000000  G(1)=  0.1679928 -0.0969907  0.0000000
 R(2)=  2.9763187  5.1551351  0.0000000  G(2)=  0.1679928  0.0969907  0.0000000
 R(3)=  0.0000000  0.0000000 37.7945227  G(3)=  0.0000000  0.0000000  0.0264589
 Unit cell volume ucvol=  1.1597873E+03 bohr^3
 Angles (23,13,12)=  9.00000000E+01  9.00000000E+01  1.20000000E+02 degrees
 
 getcut: wavevector=  0.0000  0.0000  0.0000  ngfft=  24  24 160
         ecut(hartree)=     20.000   => boxcut(ratio)=   2.00273
--------------------------------------------------------------------------------
 
 
================================================================================
 prteigrs : about to open file mos2o_DS2_EIG
 Non-SCF case, kpt    1 (  0.00000  0.00000  0.00000), residuals and eigenvalues=
  4.81E-13  4.21E-13  4.95E-13  2.98E-13  4.32E-11  2.22E-12  2.17E-11  1.86E-05
 -2.2662E+00 -1.3177E+00 -1.3047E+00 -1.3046E+00 -5.4335E-01 -5.2106E-01
 -2.3059E-01 -1.3704E-01
  prteigrs : nnsclo,ikpt=   10    1 max resid (excl. the buffer)=  4.32094E-11
 Non-SCF case, kpt    2 (  0.02941  0.00000  0.00000), residuals and eigenvalues=
  7.86E-13  3.66E-13  8.16E-13  4.35E-13  3.15E-11  1.68E-12  1.16E-10  7.94E-07
 -2.2663E+00 -1.3177E+00 -1.3049E+00 -1.3046E+00 -5.4290E-01 -5.2075E-01
 -2.2996E-01 -1.3735E-01
  prteigrs : nnsclo,ikpt=   10    2 max resid (excl. the buffer)=  3.14758E-11
 Non-SCF case, kpt    3 (  0.05882  0.00000  0.00000), residuals and eigenvalues=
  3.94E-13  6.51E-13  3.30E-13  7.91E-13  1.22E-11  1.77E-12  9.73E-11  8.34E-08
 -2.2662E+00 -1.3175E+00 -1.3053E+00 -1.3047E+00 -5.4155E-01 -5.1982E-01
 -2.2812E-01 -1.3824E-01
  prteigrs : nnsclo,ikpt=   10    3 max resid (excl. the buffer)=  1.21967E-11
 Non-SCF case, kpt    4 (  0.08824  0.00000  0.00000), residuals and eigenvalues=
  6.89E-13  6.32E-13  3.22E-13  4.26E-13  8.96E-12  1.56E-12  1.31E-10  1.18E-07
 -2.2662E+00 -1.3175E+00 -1.3058E+00 -1.3049E+00 -5.3932E-01 -5.1829E-01
 -2.2514E-01 -1.3971E-01
  prteigrs : nnsclo,ikpt=   10    4 max resid (excl. the buffer)=  8.96390E-12
 Non-SCF case, kpt    5 (  0.11765  0.00000  0.00000), residuals and eigenvalues=
  3.62E-13  7.83E-13  6.08E-13  4.29E-13  5.87E-12  3.22E-12  4.72E-10  3.33E-07
 -2.2662E+00 -1.3174E+00 -1.3068E+00 -1.3051E+00 -5.3625E-01 -5.1619E-01
 -2.2113E-01 -1.4178E-01
  prteigrs : nnsclo,ikpt=   10    5 max resid (excl. the buffer)=  5.86849E-12
 Non-SCF case, kpt    6 (  0.14706  0.00000  0.00000), residuals and eigenvalues=
  4.68E-13  6.77E-13  2.92E-13  3.10E-13  2.50E-11  3.77E-12  2.42E-10  5.03E-06
 -2.2664E+00 -1.3173E+00 -1.3079E+00 -1.3054E+00 -5.3238E-01 -5.1355E-01
 -2.1624E-01 -1.4448E-01
  prteigrs : nnsclo,ikpt=   10    6 max resid (excl. the buffer)=  2.49539E-11
 Non-SCF case, kpt    7 (  0.17647  0.00000  0.00000), residuals and eigenvalues=
  3.73E-13  3.68E-13  9.10E-13  2.95E-13  1.24E-11  1.17E-12  3.25E-10  2.40E-06
 -2.2663E+00 -1.3170E+00 -1.3090E+00 -1.3056E+00 -5.2777E-01 -5.1040E-01
 -2.1070E-01 -1.4795E-01
  prteigrs : nnsclo,ikpt=   10    7 max resid (excl. the buffer)=  1.23828E-11
 Non-SCF case, kpt    8 (  0.20588  0.00000  0.00000), residuals and eigenvalues=
  3.21E-13  3.87E-13  2.77E-13  6.92E-13  9.48E-12  4.38E-12  2.87E-09  1.50E-05
 -2.2661E+00 -1.3168E+00 -1.3102E+00 -1.3059E+00 -5.2252E-01 -5.0682E-01
 -2.0487E-01 -1.5229E-01
  prteigrs : nnsclo,ikpt=   10    8 max resid (excl. the buffer)=  9.48200E-12
 Non-SCF case, kpt    9 (  0.23529  0.00000  0.00000), residuals and eigenvalues=
  4.66E-13  8.48E-13  4.06E-13  5.95E-13  4.94E-12  3.89E-12  7.83E-08  1.84E-04
 -2.2660E+00 -1.3165E+00 -1.3115E+00 -1.3062E+00 -5.1672E-01 -5.0289E-01
 -1.9927E-01 -1.5557E-01
  prteigrs : nnsclo,ikpt=   10    9 max resid (excl. the buffer)=  4.93606E-12
 Non-SCF case, kpt   10 (  0.26471  0.00000  0.00000), residuals and eigenvalues=
  8.97E-13  9.31E-13  7.56E-13  3.69E-13  1.65E-11  1.77E-12  1.69E-07  1.32E-06
 -2.2659E+00 -1.3163E+00 -1.3127E+00 -1.3065E+00 -5.1051E-01 -4.9869E-01
 -1.9487E-01 -1.6496E-01
  prteigrs : nnsclo,ikpt=   10   10 max resid (excl. the buffer)=  1.65284E-11
 Non-SCF case, kpt   11 (  0.29412  0.00000  0.00000), residuals and eigenvalues=
  6.97E-13  8.60E-13  5.83E-13  5.24E-13  3.02E-12  2.36E-12  7.78E-06  1.33E-05
 -2.2659E+00 -1.3161E+00 -1.3141E+00 -1.3069E+00 -5.0406E-01 -4.9435E-01
 -1.9390E-01 -1.7071E-01
  prteigrs : nnsclo,ikpt=   10   11 max resid (excl. the buffer)=  3.01684E-12
 Non-SCF case, kpt   12 (  0.32353  0.00000  0.00000), residuals and eigenvalues=
  9.00E-13  8.06E-13  6.72E-13  8.95E-13  2.16E-12  1.28E-12  3.97E-06  3.21E-04
 -2.2657E+00 -1.3159E+00 -1.3152E+00 -1.3071E+00 -4.9755E-01 -4.9001E-01
 -1.9910E-01 -1.7665E-01
  prteigrs : nnsclo,ikpt=   10   12 max resid (excl. the buffer)=  2.15841E-12
 Non-SCF case, kpt   13 (  0.35294  0.00000  0.00000), residuals and eigenvalues=
  3.15E-13  3.87E-13  3.25E-13  2.62E-13  3.40E-12  7.66E-13  1.24E-07  1.30E-05
 -2.2654E+00 -1.3161E+00 -1.3156E+00 -1.3073E+00 -4.9122E-01 -4.8584E-01
 -2.0806E-01 -1.9090E-01
  prteigrs : nnsclo,ikpt=   10   13 max resid (excl. the buffer)=  3.40139E-12
 Non-SCF case, kpt   14 (  0.38235  0.00000  0.00000), residuals and eigenvalues=
  2.98E-13  4.61E-13  3.21E-13  6.08E-13  1.14E-12  1.70E-12  2.65E-07  3.19E-05
 -2.2652E+00 -1.3170E+00 -1.3154E+00 -1.3074E+00 -4.8538E-01 -4.8201E-01
 -2.1733E-01 -1.9906E-01
  prteigrs : nnsclo,ikpt=   10   14 max resid (excl. the buffer)=  1.69689E-12
 Non-SCF case, kpt   15 (  0.41176  0.00000  0.00000), residuals and eigenvalues=
  2.61E-13  3.26E-13  7.41E-13  2.39E-13  9.37E-13  3.35E-12  1.01E-08  3.90E-08
 -2.2654E+00 -1.3180E+00 -1.3153E+00 -1.3077E+00 -4.8039E-01 -4.7869E-01
 -2.2552E-01 -2.0609E-01
  prteigrs : nnsclo,ikpt=   10   15 max resid (excl. the buffer)=  3.35095E-12
 Non-SCF case, kpt   16 (  0.44118  0.00000  0.00000), residuals and eigenvalues=
  2.18E-13  7.85E-13  3.13E-13  5.96E-13  9.41E-13  1.99E-12  1.73E-08  2.55E-07
 -2.2654E+00 -1.3186E+00 -1.3153E+00 -1.3078E+00 -4.7677E-01 -4.7587E-01
 -2.3185E-01 -2.1139E-01
  prteigrs : nnsclo,ikpt=   10   16 max resid (excl. the buffer)=  1.98613E-12
 Non-SCF case, kpt   17 (  0.47059  0.00000  0.00000), residuals and eigenvalues=
  7.09E-13  4.09E-13  7.09E-13  3.17E-13  1.27E-12  1.64E-12  5.75E-09  2.67E-08
 -2.2654E+00 -1.3189E+00 -1.3153E+00 -1.3079E+00 -4.7493E-01 -4.7362E-01
 -2.3585E-01 -2.1470E-01
  prteigrs : nnsclo,ikpt=   10   17 max resid (excl. the buffer)=  1.63960E-12
 Non-SCF case, kpt   18 (  0.50000  0.00000  0.00000), residuals and eigenvalues=
  6.34E-13  1.98E-13  7.64E-13  3.98E-13  7.02E-13  8.02E-13  9.09E-09  1.34E-07
 -2.2654E+00 -1.3190E+00 -1.3153E+00 -1.3079E+00 -4.7435E-01 -4.7280E-01
 -2.3722E-01 -2.1583E-01
 Non-SCF case, kpt   19 (  0.48333  0.03333  0.00000), residuals and eigenvalues=
  5.27E-13  3.04E-13  2.62E-13  2.71E-13  5.88E-13  9.08E-13  1.04E-08  7.27E-08
 -2.2654E+00 -1.3190E+00 -1.3152E+00 -1.3080E+00 -4.7419E-01 -4.7259E-01
 -2.3667E-01 -2.1561E-01
 Non-SCF case, kpt   20 (  0.46667  0.06667  0.00000), residuals and eigenvalues=
  7.47E-13  3.37E-13  7.75E-13  3.97E-13  1.30E-12  9.32E-13  2.67E-08  7.20E-07
 -2.2655E+00 -1.3189E+00 -1.3152E+00 -1.3085E+00 -4.7369E-01 -4.7199E-01
 -2.3505E-01 -2.1497E-01
  prteigrs : nnsclo,ikpt=   10   20 max resid (excl. the buffer)=  1.30345E-12
 Non-SCF case, kpt   21 (  0.45000  0.10000  0.00000), residuals and eigenvalues=
  3.17E-13  7.42E-13  2.93E-13  4.12E-13  7.46E-13  6.20E-13  6.92E-09  1.01E-07
 -2.2655E+00 -1.3187E+00 -1.3151E+00 -1.3090E+00 -4.7290E-01 -4.7102E-01
 -2.3237E-01 -2.1399E-01
 Non-SCF case, kpt   22 (  0.43333  0.13333  0.00000), residuals and eigenvalues=
  9.80E-13  6.62E-13  3.54E-13  5.47E-13  2.54E-12  6.11E-13  1.35E-08  1.01E-07
 -2.2656E+00 -1.3184E+00 -1.3151E+00 -1.3097E+00 -4.7188E-01 -4.6974E-01
 -2.2869E-01 -2.1275E-01
  prteigrs : nnsclo,ikpt=   10   22 max resid (excl. the buffer)=  2.54007E-12
 Non-SCF case, kpt   23 (  0.41667  0.16667  0.00000), residuals and eigenvalues=
  5.22E-13  5.10E-13  3.29E-13  4.27E-13  2.44E-12  1.44E-12  1.69E-08  2.86E-08
 -2.2658E+00 -1.3180E+00 -1.3152E+00 -1.3106E+00 -4.7069E-01 -4.6825E-01
 -2.2409E-01 -2.1143E-01
  prteigrs : nnsclo,ikpt=   10   23 max resid (excl. the buffer)=  2.43657E-12
 Non-SCF case, kpt   24 (  0.40000  0.20000  0.00000), residuals and eigenvalues=
  8.27E-13  9.39E-13  3.32E-13  9.51E-13  1.07E-12  6.59E-13  2.83E-08  6.40E-07
 -2.2657E+00 -1.3175E+00 -1.3151E+00 -1.3113E+00 -4.6944E-01 -4.6664E-01
 -2.1868E-01 -2.1023E-01
  prteigrs : nnsclo,ikpt=   10   24 max resid (excl. the buffer)=  1.07095E-12
 Non-SCF case, kpt   25 (  0.38333  0.23333  0.00000), residuals and eigenvalues=
  6.32E-13  5.54E-13  3.49E-13  4.83E-13  1.04E-12  7.77E-13  1.10E-08  1.29E-07
 -2.2657E+00 -1.3169E+00 -1.3151E+00 -1.3122E+00 -4.6824E-01 -4.6508E-01
 -2.1264E-01 -2.0937E-01
  prteigrs : nnsclo,ikpt=   10   25 max resid (excl. the buffer)=  1.04206E-12
 Non-SCF case, kpt   26 (  0.36667  0.26667  0.00000), residuals and eigenvalues=
  4.29E-13  4.74E-13  3.49E-13  7.67E-13  6.88E-13  9.06E-13  7.98E-09  1.79E-08
 -2.2658E+00 -1.3164E+00 -1.3151E+00 -1.3132E+00 -4.6721E-01 -4.6372E-01
 -2.0907E-01 -2.0621E-01
 Non-SCF case, kpt   27 (  0.35000  0.30000  0.00000), residuals and eigenvalues=
  5.13E-13  4.59E-13  3.53E-13  7.93E-13  5.73E-13  7.04E-13  4.46E-08  4.66E-07
 -2.2656E+00 -1.3157E+00 -1.3149E+00 -1.3141E+00 -4.6650E-01 -4.6277E-01
 -2.0910E-01 -2.0038E-01
 Non-SCF case, kpt   28 (  0.33333  0.33333  0.00000), residuals and eigenvalues=
  3.55E-13  9.34E-13  5.25E-13  5.87E-13  5.49E-13  7.59E-13  8.32E-07  3.69E-07
 -2.2656E+00 -1.3153E+00 -1.3149E+00 -1.3146E+00 -4.6623E-01 -4.6240E-01
 -2.0922E-01 -1.9762E-01
 Non-SCF case, kpt   29 (  0.35000  0.35000  0.02500), residuals and eigenvalues=
  3.25E-13  5.99E-13  3.00E-13  2.79E-13  8.71E-13  9.88E-13  2.97E-08  1.53E-07
 -2.2657E+00 -1.3157E+00 -1.3149E+00 -1.3142E+00 -4.6650E-01 -4.6277E-01
 -2.0910E-01 -2.0038E-01
 Non-SCF case, kpt   30 (  0.36667  0.36667  0.05000), residuals and eigenvalues=
  5.22E-13  4.89E-13  5.54E-13  3.27E-13  6.14E-13  6.07E-13  6.62E-08  4.48E-09
 -2.2657E+00 -1.3163E+00 -1.3150E+00 -1.3133E+00 -4.6721E-01 -4.6373E-01
 -2.0907E-01 -2.0620E-01
 Non-SCF case, kpt   31 (  0.38333  0.38333  0.07500), residuals and eigenvalues=
  9.16E-13  7.16E-13  5.17E-13  3.29E-13  1.63E-12  1.08E-12  2.82E-08  3.41E-08
 -2.2656E+00 -1.3169E+00 -1.3150E+00 -1.3123E+00 -4.6824E-01 -4.6508E-01
 -2.1263E-01 -2.0936E-01
  prteigrs : nnsclo,ikpt=   10   31 max resid (excl. the buffer)=  1.63340E-12
 Non-SCF case, kpt   32 (  0.40000  0.40000  0.10000), residuals and eigenvalues=
  4.20E-13  4.28E-13  9.38E-13  5.49E-13  5.68E-13  9.56E-13  3.55E-08  5.95E-08
 -2.2656E+00 -1.3174E+00 -1.3151E+00 -1.3114E+00 -4.6944E-01 -4.6664E-01
 -2.1867E-01 -2.1022E-01
 Non-SCF case, kpt   33 (  0.41667  0.41667  0.12500), residuals and eigenvalues=
  5.01E-13  3.52E-13  8.44E-13  3.64E-13  3.44E-12  6.74E-13  1.00E-08  1.07E-09
 -2.2657E+00 -1.3179E+00 -1.3151E+00 -1.3106E+00 -4.7069E-01 -4.6825E-01
 -2.2408E-01 -2.1142E-01
  prteigrs : nnsclo,ikpt=   10   33 max resid (excl. the buffer)=  3.44238E-12
 Non-SCF case, kpt   34 (  0.43333  0.43333  0.15000), residuals and eigenvalues=
  3.94E-13  8.97E-13  9.98E-13  3.21E-13  7.98E-13  8.58E-13  4.37E-09  2.26E-08
 -2.2656E+00 -1.3183E+00 -1.3152E+00 -1.3098E+00 -4.7188E-01 -4.6974E-01
 -2.2868E-01 -2.1274E-01
 Non-SCF case, kpt   35 (  0.45000  0.45000  0.17500), residuals and eigenvalues=
  4.57E-13  6.80E-13  8.47E-13  4.20E-13  9.72E-13  5.70E-13  3.89E-08  5.50E-08
 -2.2656E+00 -1.3186E+00 -1.3152E+00 -1.3091E+00 -4.7290E-01 -4.7102E-01
 -2.3236E-01 -2.1398E-01
 Non-SCF case, kpt   36 (  0.46667  0.46667  0.20000), residuals and eigenvalues=
  2.84E-13  2.83E-13  5.53E-13  3.27E-13  8.99E-13  6.41E-13  1.12E-08  1.73E-07
 -2.2656E+00 -1.3188E+00 -1.3153E+00 -1.3086E+00 -4.7369E-01 -4.7199E-01
 -2.3504E-01 -2.1497E-01
 Non-SCF case, kpt   37 (  0.48333  0.48333  0.22500), residuals and eigenvalues=
  5.64E-13  2.37E-13  3.02E-13  5.46E-13  5.83E-13  2.40E-12  2.46E-08  1.76E-06
 -2.2655E+00 -1.3190E+00 -1.3153E+00 -1.3081E+00 -4.7418E-01 -4.7260E-01
 -2.3667E-01 -2.1560E-01
  prteigrs : nnsclo,ikpt=   10   37 max resid (excl. the buffer)=  2.39511E-12
 Non-SCF case, kpt   38 (  0.50000  0.50000  0.25000), residuals and eigenvalues=
  4.91E-13  7.20E-13  7.23E-13  2.87E-13  1.02E-12  4.41E-13  3.30E-10  1.01E-07
 -2.2654E+00 -1.3190E+00 -1.3153E+00 -1.3080E+00 -4.7435E-01 -4.7280E-01
 -2.3722E-01 -2.1582E-01
  prteigrs : nnsclo,ikpt=   10   38 max resid (excl. the buffer)=  1.01742E-12
 Non-SCF case, kpt   39 (  0.51667  0.51667  0.27500), residuals and eigenvalues=
  6.20E-13  7.47E-13  9.96E-13  6.06E-13  9.42E-13  1.10E-12  1.91E-08  1.15E-06
 -2.2655E+00 -1.3190E+00 -1.3153E+00 -1.3081E+00 -4.7418E-01 -4.7260E-01
 -2.3667E-01 -2.1560E-01
  prteigrs : nnsclo,ikpt=   10   39 max resid (excl. the buffer)=  1.10018E-12
 Non-SCF case, kpt   40 (  0.53333  0.53333  0.30000), residuals and eigenvalues=
  3.74E-13  6.80E-13  5.83E-13  8.38E-13  7.30E-13  1.38E-12  8.97E-09  3.47E-08
 -2.2655E+00 -1.3188E+00 -1.3152E+00 -1.3086E+00 -4.7369E-01 -4.7199E-01
 -2.3503E-01 -2.1496E-01
  prteigrs : nnsclo,ikpt=   10   40 max resid (excl. the buffer)=  1.37967E-12
 Non-SCF case, kpt   41 (  0.55000  0.55000  0.32500), residuals and eigenvalues=
  7.84E-13  7.17E-13  8.21E-13  6.54E-13  8.99E-13  1.24E-12  3.70E-09  3.47E-07
 -2.2655E+00 -1.3186E+00 -1.3152E+00 -1.3091E+00 -4.7290E-01 -4.7102E-01
 -2.3236E-01 -2.1398E-01
  prteigrs : nnsclo,ikpt=   10   41 max resid (excl. the buffer)=  1.24400E-12
 Non-SCF case, kpt   42 (  0.56667  0.56667  0.35000), residuals and eigenvalues=
  6.60E-13  2.53E-13  4.05E-13  4.73E-13  8.71E-13  2.50E-12  7.00E-09  1.05E-06
 -2.2656E+00 -1.3183E+00 -1.3152E+00 -1.3098E+00 -4.7187E-01 -4.6974E-01
 -2.2868E-01 -2.1274E-01
  prteigrs : nnsclo,ikpt=   10   42 max resid (excl. the buffer)=  2.50297E-12
 Non-SCF case, kpt   43 (  0.58333  0.58333  0.37500), residuals and eigenvalues=
  9.89E-13  4.47E-13  6.21E-13  4.51E-13  1.26E-12  9.02E-13  1.48E-08  6.38E-08
 -2.2657E+00 -1.3179E+00 -1.3151E+00 -1.3106E+00 -4.7069E-01 -4.6825E-01
 -2.2408E-01 -2.1142E-01
  prteigrs : nnsclo,ikpt=   10   43 max resid (excl. the buffer)=  1.26461E-12
 Non-SCF case, kpt   44 (  0.60000  0.60000  0.40000), residuals and eigenvalues=
  6.62E-13  3.74E-13  3.09E-13  4.10E-13  1.65E-12  6.10E-13  2.00E-08  4.26E-08
 -2.2657E+00 -1.3175E+00 -1.3150E+00 -1.3115E+00 -4.6944E-01 -4.6665E-01
 -2.1868E-01 -2.1022E-01
  prteigrs : nnsclo,ikpt=   10   44 max resid (excl. the buffer)=  1.65092E-12
 Non-SCF case, kpt   45 (  0.61667  0.61667  0.42500), residuals and eigenvalues=
  4.96E-13  3.21E-13  4.55E-13  7.35E-13  7.64E-13  7.88E-13  5.17E-09  3.62E-08
 -2.2656E+00 -1.3169E+00 -1.3150E+00 -1.3123E+00 -4.6824E-01 -4.6508E-01
 -2.1263E-01 -2.0936E-01
 Non-SCF case, kpt   46 (  0.63333  0.63333  0.45000), residuals and eigenvalues=
  6.18E-13  5.37E-13  9.47E-13  3.56E-13  1.11E-12  5.56E-13  2.12E-08  8.87E-09
 -2.2656E+00 -1.3163E+00 -1.3150E+00 -1.3132E+00 -4.6721E-01 -4.6372E-01
 -2.0907E-01 -2.0619E-01
  prteigrs : nnsclo,ikpt=   10   46 max resid (excl. the buffer)=  1.10902E-12
 Non-SCF case, kpt   47 (  0.65000  0.65000  0.47500), residuals and eigenvalues=
  6.04E-13  7.87E-13  8.27E-13  3.97E-13  3.18E-13  4.16E-13  3.06E-07  2.91E-07
 -2.2658E+00 -1.3157E+00 -1.3150E+00 -1.3141E+00 -4.6650E-01 -4.6277E-01
 -2.0910E-01 -2.0038E-01
 Non-SCF case, kpt   48 (  0.66667  0.66667  0.50000), residuals and eigenvalues=
  4.51E-13  6.57E-13  2.98E-13  3.46E-13  1.19E-12  9.44E-13  1.91E-07  1.66E-07
 -2.2659E+00 -1.3154E+00 -1.3150E+00 -1.3147E+00 -4.6623E-01 -4.6241E-01
 -2.0923E-01 -1.9764E-01
  prteigrs : nnsclo,ikpt=   10   48 max resid (excl. the buffer)=  1.18575E-12
 Non-SCF case, kpt   49 (  0.68333  0.68333  0.52500), residuals and eigenvalues=
  3.33E-13  9.47E-13  3.68E-13  9.82E-13  6.13E-13  4.99E-13  8.23E-07  1.18E-07
 -2.2657E+00 -1.3157E+00 -1.3150E+00 -1.3141E+00 -4.6653E-01 -4.6282E-01
 -2.0893E-01 -1.9995E-01
 Non-SCF case, kpt   50 (  0.70000  0.70000  0.55000), residuals and eigenvalues=
  5.20E-13  8.03E-13  6.34E-13  5.50E-13  8.89E-13  9.76E-13  2.83E-07  5.23E-08
 -2.2657E+00 -1.3162E+00 -1.3150E+00 -1.3133E+00 -4.6749E-01 -4.6418E-01
 -2.0776E-01 -2.0378E-01
 Non-SCF case, kpt   51 (  0.71667  0.71667  0.57500), residuals and eigenvalues=
  7.44E-13  7.00E-13  2.83E-13  6.69E-13  7.45E-13  8.22E-13  1.32E-07  3.48E-07
 -2.2656E+00 -1.3164E+00 -1.3150E+00 -1.3126E+00 -4.6916E-01 -4.6656E-01
 -2.0656E-01 -2.0524E-01
 Non-SCF case, kpt   52 (  0.73333  0.73333  0.60000), residuals and eigenvalues=
  3.63E-13  4.37E-13  9.30E-13  7.52E-13  1.22E-12  7.28E-13  6.29E-08  2.06E-07
 -2.2656E+00 -1.3165E+00 -1.3151E+00 -1.3118E+00 -4.7156E-01 -4.6994E-01
 -2.0727E-01 -2.0140E-01
  prteigrs : nnsclo,ikpt=   10   52 max resid (excl. the buffer)=  1.22486E-12
 Non-SCF case, kpt   53 (  0.75000  0.75000  0.62500), residuals and eigenvalues=
  5.55E-13  4.34E-13  5.87E-13  4.84E-13  6.47E-13  1.22E-12  3.35E-08  4.08E-07
 -2.2657E+00 -1.3164E+00 -1.3153E+00 -1.3111E+00 -4.7490E-01 -4.7399E-01
 -2.0593E-01 -1.9600E-01
  prteigrs : nnsclo,ikpt=   10   53 max resid (excl. the buffer)=  1.22478E-12
 Non-SCF case, kpt   54 (  0.76667  0.76667  0.65000), residuals and eigenvalues=
  4.02E-13  6.63E-13  6.05E-13  6.89E-13  1.81E-12  5.61E-13  8.83E-09  1.00E-06
 -2.2656E+00 -1.3160E+00 -1.3154E+00 -1.3103E+00 -4.7985E-01 -4.7782E-01
 -2.0262E-01 -1.8915E-01
  prteigrs : nnsclo,ikpt=   10   54 max resid (excl. the buffer)=  1.81292E-12
 Non-SCF case, kpt   55 (  0.78333  0.78333  0.67500), residuals and eigenvalues=
  8.46E-13  4.29E-13  6.96E-13  9.65E-13  2.32E-12  2.35E-12  1.19E-07  9.32E-06
 -2.2656E+00 -1.3155E+00 -1.3155E+00 -1.3096E+00 -4.8569E-01 -4.8183E-01
 -1.9766E-01 -1.8111E-01
  prteigrs : nnsclo,ikpt=   10   55 max resid (excl. the buffer)=  2.34923E-12
 Non-SCF case, kpt   56 (  0.80000  0.80000  0.70000), residuals and eigenvalues=
  7.28E-13  7.19E-13  9.84E-13  2.78E-13  5.75E-12  3.98E-12  1.17E-06  1.20E-05
 -2.2657E+00 -1.3157E+00 -1.3149E+00 -1.3089E+00 -4.9199E-01 -4.8610E-01
 -1.9183E-01 -1.7242E-01
  prteigrs : nnsclo,ikpt=   10   56 max resid (excl. the buffer)=  5.74505E-12
 Non-SCF case, kpt   57 (  0.81667  0.81667  0.72500), residuals and eigenvalues=
  4.92E-13  8.87E-13  7.17E-13  8.74E-13  3.62E-12  3.46E-12  9.32E-06  1.41E-05
 -2.2658E+00 -1.3159E+00 -1.3141E+00 -1.3082E+00 -4.9852E-01 -4.9051E-01
 -1.8743E-01 -1.7018E-01
  prteigrs : nnsclo,ikpt=   10   57 max resid (excl. the buffer)=  3.62063E-12
 Non-SCF case, kpt   58 (  0.83333  0.83333  0.75000), residuals and eigenvalues=
  6.40E-13  7.60E-13  6.89E-13  5.03E-13  4.51E-12  3.02E-12  2.94E-06  1.47E-04
 -2.2660E+00 -1.3162E+00 -1.3131E+00 -1.3077E+00 -5.0508E-01 -4.9495E-01
 -1.8839E-01 -1.6330E-01
  prteigrs : nnsclo,ikpt=   10   58 max resid (excl. the buffer)=  4.50576E-12
 Non-SCF case, kpt   59 (  0.85000  0.85000  0.77500), residuals and eigenvalues=
  5.88E-13  9.01E-13  9.33E-13  3.66E-13  6.92E-12  2.38E-12  7.59E-08  3.19E-06
 -2.2660E+00 -1.3164E+00 -1.3121E+00 -1.3071E+00 -5.1148E-01 -4.9930E-01
 -1.9310E-01 -1.5642E-01
  prteigrs : nnsclo,ikpt=   10   59 max resid (excl. the buffer)=  6.91935E-12
 Non-SCF case, kpt   60 (  0.86667  0.86667  0.80000), residuals and eigenvalues=
  5.30E-13  3.54E-13  3.86E-13  2.77E-13  3.81E-12  4.52E-12  4.93E-09  1.72E-05
 -2.2660E+00 -1.3166E+00 -1.3109E+00 -1.3066E+00 -5.1756E-01 -5.0344E-01
 -1.9900E-01 -1.5245E-01
  prteigrs : nnsclo,ikpt=   10   60 max resid (excl. the buffer)=  4.52077E-12
 Non-SCF case, kpt   61 (  0.88333  0.88333  0.82500), residuals and eigenvalues=
  3.31E-13  7.23E-13  6.78E-13  9.88E-13  9.66E-12  6.57E-12  5.16E-09  8.91E-06
 -2.2662E+00 -1.3168E+00 -1.3098E+00 -1.3062E+00 -5.2321E-01 -5.0729E-01
 -2.0517E-01 -1.4953E-01
  prteigrs : nnsclo,ikpt=   10   61 max resid (excl. the buffer)=  9.65562E-12
 Non-SCF case, kpt   62 (  0.90000  0.90000  0.85000), residuals and eigenvalues=
  5.60E-13  8.77E-13  7.31E-13  5.84E-13  1.50E-11  1.64E-12  5.21E-10  3.72E-06
 -2.2663E+00 -1.3170E+00 -1.3087E+00 -1.3058E+00 -5.2831E-01 -5.1076E-01
 -2.1116E-01 -1.4660E-01
  prteigrs : nnsclo,ikpt=   10   62 max resid (excl. the buffer)=  1.49874E-11
 Non-SCF case, kpt   63 (  0.91667  0.91667  0.87500), residuals and eigenvalues=
  5.65E-13  4.25E-13  7.08E-13  3.55E-13  7.24E-12  1.92E-12  5.99E-10  3.43E-06
 -2.2663E+00 -1.3172E+00 -1.3077E+00 -1.3054E+00 -5.3277E-01 -5.1381E-01
 -2.1666E-01 -1.4388E-01
  prteigrs : nnsclo,ikpt=   10   63 max resid (excl. the buffer)=  7.23562E-12
 Non-SCF case, kpt   64 (  0.93333  0.93333  0.90000), residuals and eigenvalues=
  8.46E-13  6.01E-13  7.41E-13  8.82E-13  1.78E-11  4.39E-12  3.08E-10  2.06E-06
 -2.2664E+00 -1.3174E+00 -1.3067E+00 -1.3052E+00 -5.3651E-01 -5.1637E-01
 -2.2144E-01 -1.4151E-01
  prteigrs : nnsclo,ikpt=   10   64 max resid (excl. the buffer)=  1.77613E-11
 Non-SCF case, kpt   65 (  0.95000  0.95000  0.92500), residuals and eigenvalues=
  7.70E-13  5.91E-13  7.61E-13  2.83E-13  4.90E-12  2.42E-12  2.31E-11  2.14E-07
 -2.2663E+00 -1.3175E+00 -1.3058E+00 -1.3050E+00 -5.3947E-01 -5.1839E-01
 -2.2533E-01 -1.3960E-01
  prteigrs : nnsclo,ikpt=   10   65 max resid (excl. the buffer)=  4.90195E-12
 Non-SCF case, kpt   66 (  0.96667  0.96667  0.95000), residuals and eigenvalues=
  4.52E-13  7.28E-13  6.41E-13  5.72E-13  1.14E-10  9.61E-12  6.74E-11  1.65E-07
 -2.2663E+00 -1.3176E+00 -1.3053E+00 -1.3048E+00 -5.4162E-01 -5.1987E-01
 -2.2821E-01 -1.3819E-01
  prteigrs : nnsclo,ikpt=   10   66 max resid (excl. the buffer)=  1.14074E-10
 Non-SCF case, kpt   67 (  0.98333  0.98333  0.97500), residuals and eigenvalues=
  7.16E-13  7.13E-13  3.38E-13  5.07E-13  1.32E-11  2.44E-12  1.66E-10  2.18E-07
 -2.2663E+00 -1.3177E+00 -1.3049E+00 -1.3047E+00 -5.4292E-01 -5.2076E-01
 -2.2999E-01 -1.3734E-01
  prteigrs : nnsclo,ikpt=   10   67 max resid (excl. the buffer)=  1.31886E-11
 Non-SCF case, kpt   68 (  1.00000  1.00000  1.00000), residuals and eigenvalues=
  9.57E-13  4.88E-13  7.55E-13  3.51E-13  7.69E-12  2.89E-12  1.51E-10  2.92E-07
 -2.2662E+00 -1.3177E+00 -1.3047E+00 -1.3046E+00 -5.4335E-01 -5.2106E-01
 -2.3059E-01 -1.3706E-01
  prteigrs : nnsclo,ikpt=   10   68 max resid (excl. the buffer)=  7.69294E-12
 
 
 scprqt:  WARNING -
  nstep=   10 was not enough non-SCF iterations to converge;
  maximum residual=  1.141E-10 exceeds tolwfr=  1.000E-12
 

--- !ResultsGS
iteration_state: {dtset: 2, }
comment   : Summary of ground state results
lattice_vectors:
- [  2.9763187,  -5.1551351,   0.0000000, ]
- [  2.9763187,   5.1551351,   0.0000000, ]
- [  0.0000000,   0.0000000,  37.7945227, ]
lattice_lengths: [   5.95264,    5.95264,   37.79452, ]
lattice_angles: [ 90.000,  90.000, 120.000, ] # degrees, (23, 13, 12)
lattice_volume:   1.1597873E+03
convergence: {deltae:  0.000E+00, res2:  0.000E+00, residm:  1.141E-10, diffor:  0.000E+00, }
etotal    :  -9.22689897E+01
entropy   :   0.00000000E+00
fermie    :  -8.06304958E-02
cartesian_stress_tensor: null
pressure_GPa: null
xred      :
- [  3.3333E-01,   6.6667E-01,   0.0000E+00, Mo]
- [  6.6667E-01,   3.3333E-01,  -9.1944E-02,  S]
- [  6.6667E-01,   3.3333E-01,   9.1944E-02,  S]
cartesian_forces: null
force_length_stats: {min: null, max: null, mean: null, }
...

 Integrated electronic density in atomic spheres:
 ------------------------------------------------
 Atom  Sphere_radius  Integrated_density
    1        2.00000         10.42008935
    2        2.00000          3.79602246
    3        2.00000          3.79527772
================================================================================
 
 ----iterations are completed or convergence reached----
 
 Mean square residual over all n,k,spin=   17.533E-13; max=  11.407E-11
 reduced coordinates (array xred) for    3 atoms
       0.333333333333      0.666666666667      0.000000000000
       0.666666666667      0.333333333333     -0.091944235000
       0.666666666667      0.333333333333      0.091944235000
 
 cartesian coordinates (angstrom) at end:
    1      1.57500000000000     0.90932667396900     0.00000000000000
    2      1.57500000000000    -0.90932667396900    -1.83888470000000
    3      1.57500000000000    -0.90932667396900     1.83888470000000
 length scales=  5.952637318590  5.952637318590 37.794522657713 bohr
              =  3.150000000000  3.150000000000 20.000000000000 angstroms
 prteigrs : about to open file mos2o_DS2_EIG
 Eigenvalues (   eV  ) for nkpt=  68  k points:
 kpt#   1, nband=  8, wtk=  1.00000, kpt=  0.0000  0.0000  0.0000 (reduced coord)
 -61.66670  -35.85704  -35.50174  -35.49902  -14.78540  -14.17875   -6.27459   -3.72907
 kpt#   2, nband=  8, wtk=  1.00000, kpt=  0.0294  0.0000  0.0000 (reduced coord)
 -61.66812  -35.85527  -35.50803  -35.50048  -14.77314  -14.17028   -6.25764   -3.73756
 kpt#   3, nband=  8, wtk=  1.00000, kpt=  0.0588  0.0000  0.0000 (reduced coord)
 -61.66741  -35.85218  -35.51855  -35.50380  -14.73640  -14.14504   -6.20746   -3.76165
 kpt#   4, nband=  8, wtk=  1.00000, kpt=  0.0882  0.0000  0.0000 (reduced coord)
 -61.66550  -35.85014  -35.53333  -35.50725  -14.67569  -14.10350   -6.12626   -3.80163
 kpt#   5, nband=  8, wtk=  1.00000, kpt=  0.1176  0.0000  0.0000 (reduced coord)
 -61.66748  -35.84771  -35.55907  -35.51230  -14.59211  -14.04630   -6.01712   -3.85807
 kpt#   6, nband=  8, wtk=  1.00000, kpt=  0.1471  0.0000  0.0000 (reduced coord)
 -61.67102  -35.84530  -35.58924  -35.52079  -14.48682  -13.97435   -5.88421   -3.93163
 kpt#   7, nband=  8, wtk=  1.00000, kpt=  0.1765  0.0000  0.0000 (reduced coord)
 -61.66827  -35.83857  -35.62003  -35.52833  -14.36148  -13.88877   -5.73340   -4.02588
 kpt#   8, nband=  8, wtk=  1.00000, kpt=  0.2059  0.0000  0.0000 (reduced coord)
 -61.66471  -35.83259  -35.65170  -35.53609  -14.21839  -13.79137   -5.57476   -4.14411
 kpt#   9, nband=  8, wtk=  1.00000, kpt=  0.2353  0.0000  0.0000 (reduced coord)
 -61.66109  -35.82428  -35.68675  -35.54471  -14.06068  -13.68421   -5.42243   -4.23339
 kpt#  10, nband=  8, wtk=  1.00000, kpt=  0.2647  0.0000  0.0000 (reduced coord)
 -61.65784  -35.81813  -35.72119  -35.55286  -13.89172  -13.56999   -5.30277   -4.48891
 kpt#  11, nband=  8, wtk=  1.00000, kpt=  0.2941  0.0000  0.0000 (reduced coord)
 -61.65782  -35.81320  -35.75735  -35.56169  -13.71607  -13.45199   -5.27627   -4.64514
 kpt#  12, nband=  8, wtk=  1.00000, kpt=  0.3235  0.0000  0.0000 (reduced coord)
 -61.65365  -35.80817  -35.78762  -35.56864  -13.53891  -13.33393   -5.41784   -4.80682
 kpt#  13, nband=  8, wtk=  1.00000, kpt=  0.3529  0.0000  0.0000 (reduced coord)
 -61.64450  -35.81418  -35.79966  -35.57240  -13.36684  -13.22025   -5.66147   -5.19469
 kpt#  14, nband=  8, wtk=  1.00000, kpt=  0.3824  0.0000  0.0000 (reduced coord)
 -61.64008  -35.83850  -35.79467  -35.57680  -13.20794  -13.11603   -5.91391   -5.41666
 kpt#  15, nband=  8, wtk=  1.00000, kpt=  0.4118  0.0000  0.0000 (reduced coord)
 -61.64340  -35.86405  -35.79158  -35.58328  -13.07205  -13.02581   -6.13679   -5.60809
 kpt#  16, nband=  8, wtk=  1.00000, kpt=  0.4412  0.0000  0.0000 (reduced coord)
 -61.64427  -35.88002  -35.79078  -35.58731  -12.97358  -12.94902   -6.30908   -5.75226
 kpt#  17, nband=  8, wtk=  1.00000, kpt=  0.4706  0.0000  0.0000 (reduced coord)
 -61.64541  -35.88993  -35.79043  -35.59023  -12.92349  -12.88797   -6.41783   -5.84236
 kpt#  18, nband=  8, wtk=  1.00000, kpt=  0.5000  0.0000  0.0000 (reduced coord)
 -61.64391  -35.89277  -35.79027  -35.58921  -12.90784  -12.86547   -6.45503   -5.87304
 kpt#  19, nband=  8, wtk=  1.00000, kpt=  0.4833  0.0333  0.0000 (reduced coord)
 -61.64387  -35.89270  -35.78828  -35.59255  -12.90323  -12.85990   -6.44022   -5.86703
 kpt#  20, nband=  8, wtk=  1.00000, kpt=  0.4667  0.0667  0.0000 (reduced coord)
 -61.64672  -35.88916  -35.78713  -35.60521  -12.88976  -12.84347   -6.39594   -5.84972
 kpt#  21, nband=  8, wtk=  1.00000, kpt=  0.4500  0.1000  0.0000 (reduced coord)
 -61.64748  -35.88296  -35.78679  -35.61897  -12.86834  -12.81708   -6.32300   -5.82284
 kpt#  22, nband=  8, wtk=  1.00000, kpt=  0.4333  0.1333  0.0000 (reduced coord)
 -61.65060  -35.87559  -35.78618  -35.63927  -12.84048  -12.78234   -6.22302   -5.78920
 kpt#  23, nband=  8, wtk=  1.00000, kpt=  0.4167  0.1667  0.0000 (reduced coord)
 -61.65471  -35.86463  -35.78817  -35.66289  -12.80824  -12.74161   -6.09782   -5.75329
 kpt#  24, nband=  8, wtk=  1.00000, kpt=  0.4000  0.2000  0.0000 (reduced coord)
 -61.65213  -35.85180  -35.78582  -35.68361  -12.77419  -12.69800   -5.95060   -5.72063
 kpt#  25, nband=  8, wtk=  1.00000, kpt=  0.3833  0.2333  0.0000 (reduced coord)
 -61.65164  -35.83596  -35.78531  -35.70801  -12.74145  -12.65543   -5.78617   -5.69725
 kpt#  26, nband=  8, wtk=  1.00000, kpt=  0.3667  0.2667  0.0000 (reduced coord)
 -61.65472  -35.82177  -35.78472  -35.73443  -12.71353  -12.61859   -5.68921   -5.61121
 kpt#  27, nband=  8, wtk=  1.00000, kpt=  0.3500  0.3000  0.0000 (reduced coord)
 -61.65141  -35.80333  -35.77993  -35.75804  -12.69408  -12.59248   -5.68987   -5.45273
 kpt#  28, nband=  8, wtk=  1.00000, kpt=  0.3333  0.3333  0.0000 (reduced coord)
 -61.65068  -35.79008  -35.78098  -35.77105  -12.68683  -12.58256   -5.69322   -5.37755
 kpt#  29, nband=  8, wtk=  1.00000, kpt=  0.3500  0.3500  0.0250 (reduced coord)
 -61.65196  -35.80138  -35.77991  -35.76076  -12.69406  -12.59249   -5.68986   -5.45261
 kpt#  30, nband=  8, wtk=  1.00000, kpt=  0.3667  0.3667  0.0500 (reduced coord)
 -61.65264  -35.81870  -35.78295  -35.73636  -12.71348  -12.61860   -5.68910   -5.61088
 kpt#  31, nband=  8, wtk=  1.00000, kpt=  0.3833  0.3833  0.0750 (reduced coord)
 -61.65061  -35.83418  -35.78408  -35.70956  -12.74139  -12.65547   -5.78593   -5.69710
 kpt#  32, nband=  8, wtk=  1.00000, kpt=  0.4000  0.4000  0.1000 (reduced coord)
 -61.65140  -35.84887  -35.78531  -35.68604  -12.77410  -12.69802   -5.95031   -5.72043
 kpt#  33, nband=  8, wtk=  1.00000, kpt=  0.4167  0.4167  0.1250 (reduced coord)
 -61.65218  -35.86229  -35.78613  -35.66372  -12.80814  -12.74165   -6.09758   -5.75300
 kpt#  34, nband=  8, wtk=  1.00000, kpt=  0.4333  0.4333  0.1500 (reduced coord)
 -61.65110  -35.87235  -35.78775  -35.64167  -12.84037  -12.78241   -6.22271   -5.78896
 kpt#  35, nband=  8, wtk=  1.00000, kpt=  0.4500  0.4500  0.1750 (reduced coord)
 -61.64953  -35.88053  -35.78914  -35.62197  -12.86824  -12.81716   -6.32276   -5.82264
 kpt#  36, nband=  8, wtk=  1.00000, kpt=  0.4667  0.4667  0.2000 (reduced coord)
 -61.65005  -35.88739  -35.79038  -35.60845  -12.88967  -12.84357   -6.39577   -5.84959
 kpt#  37, nband=  8, wtk=  1.00000, kpt=  0.4833  0.4833  0.2250 (reduced coord)
 -61.64744  -35.89150  -35.79053  -35.59653  -12.90314  -12.86003   -6.44017   -5.86682
 kpt#  38, nband=  8, wtk=  1.00000, kpt=  0.5000  0.5000  0.2500 (reduced coord)
 -61.64569  -35.89216  -35.79009  -35.59241  -12.90773  -12.86559   -6.45497   -5.87276
 kpt#  39, nband=  8, wtk=  1.00000, kpt=  0.5167  0.5167  0.2750 (reduced coord)
 -61.64742  -35.89070  -35.79161  -35.59626  -12.90314  -12.86002   -6.44010   -5.86684
 kpt#  40, nband=  8, wtk=  1.00000, kpt=  0.5333  0.5333  0.3000 (reduced coord)
 -61.64793  -35.88570  -35.78940  -35.60823  -12.88964  -12.84351   -6.39559   -5.84949
 kpt#  41, nband=  8, wtk=  1.00000, kpt=  0.5500  0.5500  0.3250 (reduced coord)
 -61.64865  -35.88011  -35.78893  -35.62147  -12.86824  -12.81714   -6.32271   -5.82261
 kpt#  42, nband=  8, wtk=  1.00000, kpt=  0.5667  0.5667  0.3500 (reduced coord)
 -61.65077  -35.87196  -35.78738  -35.64206  -12.84037  -12.78238   -6.22261   -5.78888
 kpt#  43, nband=  8, wtk=  1.00000, kpt=  0.5833  0.5833  0.3750 (reduced coord)
 -61.65159  -35.86254  -35.78507  -35.66374  -12.80814  -12.74168   -6.09763   -5.75293
 kpt#  44, nband=  8, wtk=  1.00000, kpt=  0.6000  0.6000  0.4000 (reduced coord)
 -61.65210  -35.85020  -35.78386  -35.68719  -12.77411  -12.69810   -5.95050   -5.72042
 kpt#  45, nband=  8, wtk=  1.00000, kpt=  0.6167  0.6167  0.4250 (reduced coord)
 -61.65135  -35.83532  -35.78278  -35.71074  -12.74137  -12.65550   -5.78601   -5.69705
 kpt#  46, nband=  8, wtk=  1.00000, kpt=  0.6333  0.6333  0.4500 (reduced coord)
 -61.64908  -35.81769  -35.78186  -35.73345  -12.71344  -12.61850   -5.68896   -5.61061
 kpt#  47, nband=  8, wtk=  1.00000, kpt=  0.6500  0.6500  0.4750 (reduced coord)
 -61.65433  -35.80327  -35.78201  -35.75980  -12.69407  -12.59250   -5.68997   -5.45268
 kpt#  48, nband=  8, wtk=  1.00000, kpt=  0.6667  0.6667  0.5000 (reduced coord)
 -61.65729  -35.79371  -35.78259  -35.77464  -12.68687  -12.58273   -5.69338   -5.37816
 kpt#  49, nband=  8, wtk=  1.00000, kpt=  0.6833  0.6833  0.5250 (reduced coord)
 -61.65323  -35.80241  -35.78185  -35.75912  -12.69505  -12.59404   -5.68534   -5.44099
 kpt#  50, nband=  8, wtk=  1.00000, kpt=  0.7000  0.7000  0.5500 (reduced coord)
 -61.65155  -35.81443  -35.78249  -35.73787  -12.72110  -12.63090   -5.65332   -5.54527
 kpt#  51, nband=  8, wtk=  1.00000, kpt=  0.7167  0.7167  0.5750 (reduced coord)
 -61.65040  -35.82155  -35.78356  -35.71696  -12.76646  -12.69563   -5.62086   -5.58489
 kpt#  52, nband=  8, wtk=  1.00000, kpt=  0.7333  0.7333  0.6000 (reduced coord)
 -61.65122  -35.82447  -35.78691  -35.69562  -12.83171  -12.78768   -5.64008   -5.48037
 kpt#  53, nband=  8, wtk=  1.00000, kpt=  0.7500  0.7500  0.6250 (reduced coord)
 -61.65221  -35.82088  -35.79086  -35.67557  -12.92272  -12.89797   -5.60366   -5.33331
 kpt#  54, nband=  8, wtk=  1.00000, kpt=  0.7667  0.7667  0.6500 (reduced coord)
 -61.65065  -35.80959  -35.79456  -35.65502  -13.05736  -13.00215   -5.51344   -5.14702
 kpt#  55, nband=  8, wtk=  1.00000, kpt=  0.7833  0.7833  0.6750 (reduced coord)
 -61.65129  -35.79787  -35.79706  -35.63471  -13.21624  -13.11120   -5.37873   -4.92821
 kpt#  56, nband=  8, wtk=  1.00000, kpt=  0.8000  0.8000  0.7000 (reduced coord)
 -61.65347  -35.80285  -35.77974  -35.61583  -13.38781  -13.22739   -5.21991   -4.69166
 kpt#  57, nband=  8, wtk=  1.00000, kpt=  0.8167  0.8167  0.7250 (reduced coord)
 -61.65557  -35.80801  -35.75765  -35.59836  -13.56554  -13.34753   -5.10013   -4.63089
 kpt#  58, nband=  8, wtk=  1.00000, kpt=  0.8333  0.8333  0.7500 (reduced coord)
 -61.65981  -35.81533  -35.73210  -35.58300  -13.74397  -13.46837   -5.12629   -4.44350
 kpt#  59, nband=  8, wtk=  1.00000, kpt=  0.8500  0.8500  0.7750 (reduced coord)
 -61.66099  -35.82058  -35.70272  -35.56800  -13.91800  -13.58654   -5.25454   -4.25652
 kpt#  60, nband=  8, wtk=  1.00000, kpt=  0.8667  0.8667  0.8000 (reduced coord)
 -61.66179  -35.82617  -35.67120  -35.55418  -14.08358  -13.69919   -5.41498   -4.14847
 kpt#  61, nband=  8, wtk=  1.00000, kpt=  0.8833  0.8833  0.8250 (reduced coord)
 -61.66627  -35.83227  -35.64215  -35.54358  -14.23740  -13.80394   -5.58297   -4.06886
 kpt#  62, nband=  8, wtk=  1.00000, kpt=  0.9000  0.9000  0.8500 (reduced coord)
 -61.66923  -35.83867  -35.61253  -35.53311  -14.37615  -13.89862   -5.74593   -3.98922
 kpt#  63, nband=  8, wtk=  1.00000, kpt=  0.9167  0.9167  0.8750 (reduced coord)
 -61.66971  -35.84393  -35.58347  -35.52299  -14.49733  -13.98146   -5.89552   -3.91517
 kpt#  64, nband=  8, wtk=  1.00000, kpt=  0.9333  0.9333  0.9000 (reduced coord)
 -61.67133  -35.84840  -35.55718  -35.51700  -14.59913  -14.05105   -6.02577   -3.85080
 kpt#  65, nband=  8, wtk=  1.00000, kpt=  0.9500  0.9500  0.9250 (reduced coord)
 -61.66804  -35.85082  -35.53213  -35.51022  -14.67969  -14.10624   -6.13162   -3.79858
 kpt#  66, nband=  8, wtk=  1.00000, kpt=  0.9667  0.9667  0.9500 (reduced coord)
 -61.66966  -35.85268  -35.51841  -35.50608  -14.73825  -14.14628   -6.20997   -3.76044
 kpt#  67, nband=  8, wtk=  1.00000, kpt=  0.9833  0.9833  0.9750 (reduced coord)
 -61.66938  -35.85581  -35.50776  -35.50186  -14.77362  -14.17061   -6.25841   -3.73732
 kpt#  68, nband=  8, wtk=  1.00000, kpt=  1.0000  1.0000  1.0000 (reduced coord)
 -61.66670  -35.85704  -35.50174  -35.49902  -14.78540  -14.17875   -6.27459   -3.72959
 
== END DATASET(S) ==============================================================
================================================================================
  
 -outvars: echo values of variables after computation  --------
            acell      5.9526373186E+00  5.9526373186E+00  3.7794522658E+01 Bohr
              amu      9.59400000E+01  3.20660000E+01
      chksymbreak           0
             ecut      2.00000000E+01 Hartree
           enunit1          0
           enunit2          1
           etotal1    -9.2268989743E+01
            fcart1     1.3629213110E-04 -3.2367312357E-05  1.2284707998E-04
                      -7.5232148359E-05  1.9673178327E-05  7.2906140453E-02
                      -6.1059982743E-05  1.2694134029E-05 -7.3028987533E-02
-          fftalg         512
           getden1          0
           getden2         -1
             iscf1          7
             iscf2         -2
           istwfk1       4    0    5    0    0    0    0    8    0    9
           istwfk2       2    0    0    0    0    0    0    0    0    0
                         0    0    0    0    0    0    0    3    0    0
                         0    0    0    0    0    0    0    0    0    0
                         0    0    0    0    0    0    0    0    0    0
                         0    0    0    0    0    0    0    0    0    0
                       outvar_i_n : Printing only first  50 k-points.
              ixc          11
           jdtset        1    2
              kpt1     0.00000000E+00  0.00000000E+00  5.00000000E-01
                       2.50000000E-01  0.00000000E+00  5.00000000E-01
                       5.00000000E-01  0.00000000E+00  5.00000000E-01
                       0.00000000E+00  2.50000000E-01  5.00000000E-01
                       2.50000000E-01  2.50000000E-01  5.00000000E-01
                       5.00000000E-01  2.50000000E-01  5.00000000E-01
                      -2.50000000E-01  2.50000000E-01  5.00000000E-01
                       0.00000000E+00  5.00000000E-01  5.00000000E-01
                       2.50000000E-01  5.00000000E-01  5.00000000E-01
                       5.00000000E-01  5.00000000E-01  5.00000000E-01
              kpt2     0.00000000E+00  0.00000000E+00  0.00000000E+00
                       2.94117647E-02  0.00000000E+00  0.00000000E+00
                       5.88235294E-02  0.00000000E+00  0.00000000E+00
                       8.82352941E-02  0.00000000E+00  0.00000000E+00
                       1.17647059E-01  0.00000000E+00  0.00000000E+00
                       1.47058824E-01  0.00000000E+00  0.00000000E+00
                       1.76470588E-01  0.00000000E+00  0.00000000E+00
                       2.05882353E-01  0.00000000E+00  0.00000000E+00
                       2.35294118E-01  0.00000000E+00  0.00000000E+00
                       2.64705882E-01  0.00000000E+00  0.00000000E+00
                       2.94117647E-01  0.00000000E+00  0.00000000E+00
                       3.23529412E-01  0.00000000E+00  0.00000000E+00
                       3.52941176E-01  0.00000000E+00  0.00000000E+00
                       3.82352941E-01  0.00000000E+00  0.00000000E+00
                       4.11764706E-01  0.00000000E+00  0.00000000E+00
                       4.41176471E-01  0.00000000E+00  0.00000000E+00
                       4.70588235E-01  0.00000000E+00  0.00000000E+00
                       5.00000000E-01  0.00000000E+00  0.00000000E+00
                       4.83333333E-01  3.33333333E-02  0.00000000E+00
                       4.66666667E-01  6.66666667E-02  0.00000000E+00
                       4.50000000E-01  1.00000000E-01  0.00000000E+00
                       4.33333333E-01  1.33333333E-01  0.00000000E+00
                       4.16666667E-01  1.66666667E-01  0.00000000E+00
                       4.00000000E-01  2.00000000E-01  0.00000000E+00
                       3.83333333E-01  2.33333333E-01  0.00000000E+00
                       3.66666667E-01  2.66666667E-01  0.00000000E+00
                       3.50000000E-01  3.00000000E-01  0.00000000E+00
                       3.33333333E-01  3.33333333E-01  0.00000000E+00
                       3.50000000E-01  3.50000000E-01  2.50000000E-02
                       3.66666667E-01  3.66666667E-01  5.00000000E-02
                       3.83333333E-01  3.83333333E-01  7.50000000E-02
                       4.00000000E-01  4.00000000E-01  1.00000000E-01
                       4.16666667E-01  4.16666667E-01  1.25000000E-01
                       4.33333333E-01  4.33333333E-01  1.50000000E-01
                       4.50000000E-01  4.50000000E-01  1.75000000E-01
                       4.66666667E-01  4.66666667E-01  2.00000000E-01
                       4.83333333E-01  4.83333333E-01  2.25000000E-01
                       5.00000000E-01  5.00000000E-01  2.50000000E-01
                       5.16666667E-01  5.16666667E-01  2.75000000E-01
                       5.33333333E-01  5.33333333E-01  3.00000000E-01
                       5.50000000E-01  5.50000000E-01  3.25000000E-01
                       5.66666667E-01  5.66666667E-01  3.50000000E-01
                       5.83333333E-01  5.83333333E-01  3.75000000E-01
                       6.00000000E-01  6.00000000E-01  4.00000000E-01
                       6.16666667E-01  6.16666667E-01  4.25000000E-01
                       6.33333333E-01  6.33333333E-01  4.50000000E-01
                       6.50000000E-01  6.50000000E-01  4.75000000E-01
                       6.66666667E-01  6.66666667E-01  5.00000000E-01
                       6.83333333E-01  6.83333333E-01  5.25000000E-01
                       7.00000000E-01  7.00000000E-01  5.50000000E-01
                       outvar_i_n : Printing only first  50 k-points.
           kptopt1          1
           kptopt2         -3
         kptrlatt        4    0    0      0    4    0      0    0    1
          kptrlen1     2.38105493E+01
          kptrlen2     3.00000000E+01
P           mkmem1         10
P           mkmem2         68
            natom           3
            nband1         14
            nband2          8
           nbdbuf1          0
           nbdbuf2          2
           ndtset           2
           ndivsm1          0
           ndivsm2         10
            ngfft          24      24     160
             nkpt1         10
             nkpt2         68
            nstep          10
             nsym           1
           ntypat           2
              occ      2.000000  2.000000  2.000000  2.000000  2.000000  2.000000
                       2.000000  2.000000  2.000000  2.000000  2.000000  2.000000
                       2.000000  0.000000
            rprim      5.0000000000E-01 -8.6602540378E-01  0.0000000000E+00
                       5.0000000000E-01  8.6602540378E-01  0.0000000000E+00
                       0.0000000000E+00  0.0000000000E+00  1.0000000000E+00
           shiftk1     0.00000000E+00  0.00000000E+00  5.00000000E-01
           shiftk2     5.00000000E-01  5.00000000E-01  5.00000000E-01
          spgroup           1
           strten1     2.9165992756E-04  2.9433451381E-04  5.8174567098E-04
                       9.7100117714E-08 -1.3003798059E-07  5.6738062772E-07
           toldfe1     1.00000000E-08 Hartree
           toldfe2     0.00000000E+00 Hartree
           tolwfr1     0.00000000E+00
           tolwfr2     1.00000000E-12
            typat      1  2  2
              wtk1       0.06250    0.12500    0.06250    0.12500    0.12500    0.12500
                         0.12500    0.06250    0.12500    0.06250
              wtk2       1.00000    1.00000    1.00000    1.00000    1.00000    1.00000
                         1.00000    1.00000    1.00000    1.00000    1.00000    1.00000
                         1.00000    1.00000    1.00000    1.00000    1.00000    1.00000
                         1.00000    1.00000    1.00000    1.00000    1.00000    1.00000
                         1.00000    1.00000    1.00000    1.00000    1.00000    1.00000
                         1.00000    1.00000    1.00000    1.00000    1.00000    1.00000
                         1.00000    1.00000    1.00000    1.00000    1.00000    1.00000
                         1.00000    1.00000    1.00000    1.00000    1.00000    1.00000
                         1.00000    1.00000
                       outvars : Printing only first  50 k-points.
           xangst      1.5750000000E+00  9.0932667397E-01  0.0000000000E+00
                       1.5750000000E+00 -9.0932667397E-01 -1.8388847000E+00
                       1.5750000000E+00 -9.0932667397E-01  1.8388847000E+00
            xcart      2.9763186593E+00  1.7183783791E+00  0.0000000000E+00
                       2.9763186593E+00 -1.7183783791E+00 -3.4749884730E+00
                       2.9763186593E+00 -1.7183783791E+00  3.4749884730E+00
             xred      3.3333333333E-01  6.6666666667E-01  0.0000000000E+00
                       6.6666666667E-01  3.3333333333E-01 -9.1944235000E-02
                       6.6666666667E-01  3.3333333333E-01  9.1944235000E-02
            znucl       42.00000   16.00000
 
================================================================================


- Timing analysis has been suppressed with timopt=0



================================================================================

 Suggested references for the acknowledgment of ABINIT usage.

 The users of ABINIT have little formal obligations with respect to the ABINIT group
 (those specified in the GNU General Public License, http://www.gnu.org/copyleft/gpl.txt).
 However, it is common practice in the scientific literature,
 to acknowledge the efforts of people that have made the research possible.
 In this spirit, please find below suggested citations of work written by ABINIT developers,
 corresponding to implementations inside of ABINIT that you have used in the present run.
 Note also that it will be of great value to readers of publications presenting these results,
 to read papers enabling them to understand the theoretical formalism and details
 of the ABINIT implementation.
 For information on why they are suggested, see also https://docs.abinit.org/theory/acknowledgments.
-
- [1] The Abinit project: Impact, environment and recent developments.
- Computer Phys. Comm. 248, 107042 (2020).
- X.Gonze, B. Amadon, G. Antonius, F.Arnardi, L.Baguet, J.-M.Beuken,
- J.Bieder, F.Bottin, J.Bouchet, E.Bousquet, N.Brouwer, F.Bruneval,
- G.Brunin, T.Cavignac, J.-B. Charraud, Wei Chen, M.Cote, S.Cottenier,
- J.Denier, G.Geneste, Ph.Ghosez, M.Giantomassi, Y.Gillet, O.Gingras,
- D.R.Hamann, G.Hautier, Xu He, N.Helbig, N.Holzwarth, Y.Jia, F.Jollet,
- W.Lafargue-Dit-Hauret, K.Lejaeghere, M.A.L.Marques, A.Martin, C.Martins,
- H.P.C. Miranda, F.Naccarato, K. Persson, G.Petretto, V.Planes, Y.Pouillon,
- S.Prokhorenko, F.Ricci, G.-M.Rignanese, A.H.Romero, M.M.Schmitt, M.Torrent,
- M.J.van Setten, B.Van Troeye, M.J.Verstraete, G.Zerah and J.W.Zwanzig
- Comment: the fifth generic paper describing the ABINIT project.
- Note that a version of this paper, that is not formatted for Computer Phys. Comm. 
- is available at https://www.abinit.org/sites/default/files/ABINIT20.pdf .
- The licence allows the authors to put it on the Web.
- DOI and bibtex: see https://docs.abinit.org/theory/bibliography/#gonze2020
-
- [2] Optimized norm-conserving Vanderbilt pseudopotentials.
- D.R. Hamann, Phys. Rev. B 88, 085117 (2013).
- Comment: Some pseudopotential generated using the ONCVPSP code were used.
- DOI and bibtex: see https://docs.abinit.org/theory/bibliography/#hamann2013
-
- [3] ABINIT: Overview, and focus on selected capabilities
- J. Chem. Phys. 152, 124102 (2020).
- A. Romero, D.C. Allan, B. Amadon, G. Antonius, T. Applencourt, L.Baguet,
- J.Bieder, F.Bottin, J.Bouchet, E.Bousquet, F.Bruneval,
- G.Brunin, D.Caliste, M.Cote,
- J.Denier, C. Dreyer, Ph.Ghosez, M.Giantomassi, Y.Gillet, O.Gingras,
- D.R.Hamann, G.Hautier, F.Jollet, G. Jomard,
- A.Martin, 
- H.P.C. Miranda, F.Naccarato, G.Petretto, N.A. Pike, V.Planes,
- S.Prokhorenko, T. Rangel, F.Ricci, G.-M.Rignanese, M.Royo, M.Stengel, M.Torrent,
- M.J.van Setten, B.Van Troeye, M.J.Verstraete, J.Wiktor, J.W.Zwanziger, and X.Gonze.
- Comment: a global overview of ABINIT, with focus on selected capabilities .
- Note that a version of this paper, that is not formatted for J. Chem. Phys 
- is available at https://www.abinit.org/sites/default/files/ABINIT20_JPC.pdf .
- The licence allows the authors to put it on the Web.
- DOI and bibtex: see https://docs.abinit.org/theory/bibliography/#romero2020
-
- [4] Recent developments in the ABINIT software package.
- Computer Phys. Comm. 205, 106 (2016).
- X.Gonze, F.Jollet, F.Abreu Araujo, D.Adams, B.Amadon, T.Applencourt,
- C.Audouze, J.-M.Beuken, J.Bieder, A.Bokhanchuk, E.Bousquet, F.Bruneval
- D.Caliste, M.Cote, F.Dahm, F.Da Pieve, M.Delaveau, M.Di Gennaro,
- B.Dorado, C.Espejo, G.Geneste, L.Genovese, A.Gerossier, M.Giantomassi,
- Y.Gillet, D.R.Hamann, L.He, G.Jomard, J.Laflamme Janssen, S.Le Roux,
- A.Levitt, A.Lherbier, F.Liu, I.Lukacevic, A.Martin, C.Martins,
- M.J.T.Oliveira, S.Ponce, Y.Pouillon, T.Rangel, G.-M.Rignanese,
- A.H.Romero, B.Rousseau, O.Rubel, A.A.Shukri, M.Stankovski, M.Torrent,
- M.J.Van Setten, B.Van Troeye, M.J.Verstraete, D.Waroquier, J.Wiktor,
- B.Xu, A.Zhou, J.W.Zwanziger.
- Comment: the fourth generic paper describing the ABINIT project.
- Note that a version of this paper, that is not formatted for Computer Phys. Comm. 
- is available at https://www.abinit.org/sites/default/files/ABINIT16.pdf .
- The licence allows the authors to put it on the Web.
- DOI and bibtex: see https://docs.abinit.org/theory/bibliography/#gonze2016
-
- And optionally:
-
- [5] ABINIT: First-principles approach of materials and nanosystem properties.
- Computer Phys. Comm. 180, 2582-2615 (2009).
- X. Gonze, B. Amadon, P.-M. Anglade, J.-M. Beuken, F. Bottin, P. Boulanger, F. Bruneval,
- D. Caliste, R. Caracas, M. Cote, T. Deutsch, L. Genovese, Ph. Ghosez, M. Giantomassi
- S. Goedecker, D.R. Hamann, P. Hermet, F. Jollet, G. Jomard, S. Leroux, M. Mancini, S. Mazevet,
- M.J.T. Oliveira, G. Onida, Y. Pouillon, T. Rangel, G.-M. Rignanese, D. Sangalli, R. Shaltaf,
- M. Torrent, M.J. Verstraete, G. Zerah, J.W. Zwanziger
- Comment: the third generic paper describing the ABINIT project.
- Note that a version of this paper, that is not formatted for Computer Phys. Comm. 
- is available at https://www.abinit.org/sites/default/files/ABINIT_CPC_v10.pdf .
- The licence allows the authors to put it on the Web.
- DOI and bibtex: see https://docs.abinit.org/theory/bibliography/#gonze2009
-
- Proc.   0 individual time (sec): cpu=         42.9  wall=         44.2
 
================================================================================
 
 Calculation completed.
.Delivered  56 WARNINGs and  10 COMMENTs to log file.
+Overall time at end (sec) : cpu=         42.9  wall=         44.2
