
.Version 9.10.3 of ABINIT 
.(MPI version, prepared for a x86_64_linux_intel2021.6 computer) 

.Copyright (C) 1998-2022 ABINIT group . 
 ABINIT comes with ABSOLUTELY NO WARRANTY.
 It is free software, and you are welcome to redistribute it
 under certain conditions (GNU General Public License,
 see ~abinit/COPYING or http://www.gnu.org/copyleft/gpl.txt).

 ABINIT is a project of the Universite Catholique de Louvain,
 Corning Inc. and other collaborators, see ~abinit/doc/developers/contributors.txt .
 Please read https://docs.abinit.org/theory/acknowledgments for suggested
 acknowledgments of the ABINIT effort.
 For more information, see https://www.abinit.org .

.Starting date : Wed  6 May 2025.
- ( at 20h49 )
  
- input  file    -> mos2_k_draft.abi
- output file    -> mos2_k_draft.abo
- root for input  files -> mos2_k_drafti
- root for output files -> mos2_k_drafto
 
 
 DATASET   11 : space group P1 (#  1); Bravais aP (primitive triclinic)
================================================================================
 Values of the parameters that define the memory need for DATASET 11.
     intxc =       0    ionmov =       2      iscf =       7    lmnmax =       6
     lnmax =       6     mgfft =     180  mpssoang =       3    mqgrid =    8507
     natom =       3  nloc_mem =       1    nspden =       1   nspinor =       1
    nsppol =       1      nsym =       1    n1xccc =    2501    ntypat =       2
    occopt =       1   xclevel =       2
-    mband =          14        mffmem =           1         mkmem =          14
       mpw =        6951          nfft =      162000          nkpt =          14
================================================================================
P This job should need less than                      72.746 Mbytes of memory.
  Rough estimation (10% accuracy) of disk space for files :
_ WF disk file :     20.791 Mbytes ; DEN or POT disk file :      1.238 Mbytes.
================================================================================
 
 
 DATASET   21 : space group P1 (#  1); Bravais aP (primitive triclinic)
================================================================================
 Values of the parameters that define the memory need for DATASET 21.
     intxc =       0    ionmov =       2      iscf =       7    lmnmax =       6
     lnmax =       6     mgfft =     180  mpssoang =       3    mqgrid =    8507
     natom =       3  nloc_mem =       1    nspden =       1   nspinor =       1
    nsppol =       1      nsym =       1    n1xccc =    2501    ntypat =       2
    occopt =       1   xclevel =       2
-    mband =          14        mffmem =           1         mkmem =          14
       mpw =        6951          nfft =      162000          nkpt =          14
================================================================================
P This job should need less than                      72.746 Mbytes of memory.
  Rough estimation (10% accuracy) of disk space for files :
_ WF disk file :     20.791 Mbytes ; DEN or POT disk file :      1.238 Mbytes.
================================================================================
 
 
 DATASET   31 : space group P1 (#  1); Bravais aP (primitive triclinic)
================================================================================
 Values of the parameters that define the memory need for DATASET 31.
     intxc =       0    ionmov =       2      iscf =       7    lmnmax =       6
     lnmax =       6     mgfft =     180  mpssoang =       3    mqgrid =    8507
     natom =       3  nloc_mem =       1    nspden =       1   nspinor =       1
    nsppol =       1      nsym =       1    n1xccc =    2501    ntypat =       2
    occopt =       1   xclevel =       2
-    mband =          14        mffmem =           1         mkmem =          14
       mpw =        6951          nfft =      162000          nkpt =          14
================================================================================
P This job should need less than                      72.746 Mbytes of memory.
  Rough estimation (10% accuracy) of disk space for files :
_ WF disk file :     20.791 Mbytes ; DEN or POT disk file :      1.238 Mbytes.
================================================================================
 
--------------------------------------------------------------------------------
------------- Echo of variables that govern the present computation ------------
--------------------------------------------------------------------------------
-
- outvars: echo of selected default values                                      
-   iomode0 =  0 , fftalg0 =512 , wfoptalg0 =  0
-
- outvars: echo of global parameters not present in the input file              
-  max_nthreads =    0
-
 -outvars: echo values of preprocessed input variables --------
            acell      5.9526373186E+00  5.9526373186E+00  3.7794522658E+01 Bohr
              amu      9.59400000E+01  3.20660000E+01
      chksymbreak           0
             ecut      2.50000000E+01 Hartree
-          fftalg         512
           getwfk          -1
           ionmov           2
           istwfk        2    0    0    0    0    0    0    0    0    0
                         0    0    0    0
              ixc          11
           jdtset       11   21   31
              kpt      0.00000000E+00  0.00000000E+00  0.00000000E+00
                       1.11111111E-01  1.11111111E-01  0.00000000E+00
                       3.33333333E-01  0.00000000E+00  0.00000000E+00
                       0.00000000E+00  3.33333333E-01  0.00000000E+00
                       2.22222222E-01  2.22222222E-01  0.00000000E+00
                       4.44444444E-01  1.11111111E-01  0.00000000E+00
                       1.11111111E-01  4.44444444E-01  0.00000000E+00
                       3.33333333E-01  3.33333333E-01  0.00000000E+00
                      -4.44444444E-01  2.22222222E-01  0.00000000E+00
                      -2.22222222E-01  1.11111111E-01  0.00000000E+00
                       2.22222222E-01 -4.44444444E-01  0.00000000E+00
                       4.44444444E-01  4.44444444E-01  0.00000000E+00
                      -3.33333333E-01  3.33333333E-01  0.00000000E+00
                      -1.11111111E-01  2.22222222E-01  0.00000000E+00
         kptrlatt        3   -3    0      3    6    0      0    0    1
          kptrlen      3.09308108E+01
P           mkmem          14
            natom           3
            nband          14
           ndtset           3
            ngfft          30      30     180
             nkpt          14
            nstep          10
             nsym           1
            ntime          10
           ntypat           2
              occ      2.000000  2.000000  2.000000  2.000000  2.000000  2.000000
                       2.000000  2.000000  2.000000  2.000000  2.000000  2.000000
                       2.000000  0.000000
        optforces           1
            rprim      5.0000000000E-01 -8.6602540378E-01  0.0000000000E+00
                       5.0000000000E-01  8.6602540378E-01  0.0000000000E+00
                       0.0000000000E+00  0.0000000000E+00  1.0000000000E+00
          spgroup           1
           toldff      5.00000000E-05
           tolmxf      5.00000000E-04
            typat      1  2  2
              wtk        0.03704    0.07407    0.07407    0.07407    0.07407    0.07407
                         0.07407    0.07407    0.07407    0.07407    0.07407    0.07407
                         0.07407    0.07407
           xangst      1.5750000000E+00  9.0932667397E-01  0.0000000000E+00
                       1.5750000000E+00 -9.0932667397E-01 -1.8388847000E+00
                       1.5750000000E+00 -9.0932667397E-01  1.8388847000E+00
            xcart      2.9763186593E+00  1.7183783791E+00  0.0000000000E+00
                       2.9763186593E+00 -1.7183783791E+00 -3.4749884730E+00
                       2.9763186593E+00 -1.7183783791E+00  3.4749884730E+00
             xred      3.3333333333E-01  6.6666666667E-01  0.0000000000E+00
                       6.6666666667E-01  3.3333333333E-01 -9.1944235000E-02
                       6.6666666667E-01  3.3333333333E-01  9.1944235000E-02
            znucl       42.00000   16.00000
 
================================================================================
 
 chkinp: Checking input parameters for consistency, jdtset=  11.
 
 chkinp: Checking input parameters for consistency, jdtset=  21.
 
 chkinp: Checking input parameters for consistency, jdtset=  31.
 
================================================================================
== DATASET 11 ==================================================================
-   mpi_nproc: 1, omp_nthreads: -1 (-1 if OMP is not activated)
 

--- !DatasetInfo
iteration_state: {dtset: 11, }
dimensions: {natom: 3, nkpt: 14, mband: 14, nsppol: 1, nspinor: 1, nspden: 1, mpw: 6951, }
cutoff_energies: {ecut:  25.0, pawecutdg:  -1.0, }
electrons: {nelect:   2.60000000E+01, charge:   0.00000000E+00, occopt:   1.00000000E+00, tsmear:   1.00000000E-02, }
meta: {optdriver: 0, ionmov: 2, optcell: 0, iscf: 7, paral_kgb: 0, }
...

 Exchange-correlation functional for the present dataset will be:
  GGA: Perdew-Burke-Ernzerhof functional - ixc=11
 Citation for XC functional:
  J.P.Perdew, K.Burke, M.Ernzerhof, PRL 77, 3865 (1996)
 
 Real(R)+Recip(G) space primitive vectors, cartesian coordinates (Bohr,Bohr^-1):
 R(1)=  2.9763187 -5.1551351  0.0000000  G(1)=  0.1679928 -0.0969907  0.0000000
 R(2)=  2.9763187  5.1551351  0.0000000  G(2)=  0.1679928  0.0969907  0.0000000
 R(3)=  0.0000000  0.0000000 37.7945227  G(3)=  0.0000000  0.0000000  0.0264589
 Unit cell volume ucvol=  1.1597873E+03 bohr^3
 Angles (23,13,12)=  9.00000000E+01  9.00000000E+01  1.20000000E+02 degrees
 
 getcut: wavevector=  0.0000  0.0000  0.0000  ngfft=  30  30 180
         ecut(hartree)=     25.000   => boxcut(ratio)=   2.11597
 
--- Pseudopotential description ------------------------------------------------
- pspini: atom type   1  psp file is ./persudo/Mo.psp8
- pspatm: opening atomic psp file    ./persudo/Mo.psp8
- Mo    ONCVPSP-3.2.3.1  r_core=   1.45541   1.45541   1.35488
- 42.00000  14.00000    170510                znucl, zion, pspdat
    8   11    2    4       600   0.00000      pspcod,pspxc,lmax,lloc,mmax,r2well
    5.99000000000000    3.00000000000000    0.00000000000000   rchrg,fchrg,qchrg
     nproj     2     2     2
     extension_switch     1
  pspatm : epsatm=   15.95693586
         --- l  ekb(1:nproj) -->
             0   13.833287    1.350687
             1    8.015347    1.134034
             2    2.765699    0.969071
 pspatm: atomic psp has been read  and splines computed
 
- pspini: atom type   2  psp file is ./persudo/S.psp8
- pspatm: opening atomic psp file    ./persudo/S.psp8
- S     ONCVPSP-4.0.1  r_core=   1.45687   1.45687   1.45687
- 16.00000   6.00000    220131                znucl, zion, pspdat
    8   11    2    4       600   0.00000      pspcod,pspxc,lmax,lloc,mmax,r2well
    5.99000000000000    6.00000000000000    0.00000000000000   rchrg,fchrg,qchrg
     nproj     2     2     2
     extension_switch     1
  pspatm : epsatm=    9.04179351
         --- l  ekb(1:nproj) -->
             0    6.774234    0.542270
             1    3.022426    0.737017
             2   -5.033160   -1.531047
 pspatm: atomic psp has been read  and splines computed
 
   8.85053595E+02                                ecore*ucvol(ha*bohr**3)
--------------------------------------------------------------------------------
 
_setup2: Arith. and geom. avg. npw (full set) are    6926.037    6926.015
 
================================================================================
 
=== [ionmov= 2] Broyden-Fletcher-Goldfard-Shanno method (forces)            
================================================================================
 
--- Iteration: ( 1/10) Internal Cycle: (1/1)
--------------------------------------------------------------------------------
 
---SELF-CONSISTENT-FIELD CONVERGENCE--------------------------------------------

--- !BeginCycle
iteration_state: {dtset: 11, itime: 1, icycle: 1, }
solver: {iscf: 7, nstep: 10, nline: 4, wfoptalg: 0, }
tolerances: {toldff: 5.00E-05, }
...
 
     iter   Etot(hartree)      deltaE(h)  residm     vres2    diffor    maxfor
 ETOT  1  -91.469952937278    -9.147E+01 8.424E-02 9.513E+03 7.976E-02 7.976E-02
 ETOT  2  -86.122484483789     5.347E+00 2.926E-02 9.248E+04 1.092E+00 1.012E+00
 ETOT  3  -92.223654012982    -6.101E+00 3.774E-02 1.851E+03 8.630E-01 1.500E-01
 ETOT  4  -92.297705555808    -7.405E-02 4.769E-03 8.644E+02 2.853E-02 1.219E-01
 ETOT  5  -92.315452542933    -1.775E-02 1.074E-03 4.552E+02 1.813E-02 1.038E-01
 ETOT  6  -92.320294535405    -4.842E-03 3.301E-04 3.093E+02 1.012E-02 9.383E-02
 ETOT  7  -92.323992490460    -3.698E-03 5.031E-04 1.942E+02 8.668E-03 8.516E-02
 ETOT  8  -92.325888863470    -1.896E-03 1.977E-04 1.232E+02 6.090E-03 7.907E-02
 ETOT  9  -92.326877204881    -9.883E-04 2.709E-04 8.196E+01 4.244E-03 7.483E-02
 ETOT 10  -92.327457495570    -5.803E-04 1.548E-04 5.369E+01 3.868E-03 7.097E-02
 
 Cartesian components of stress tensor (hartree/bohr^3)
  sigma(1 1)=  1.47777792E-04  sigma(3 2)=  7.02190613E-08
  sigma(2 2)=  1.48933121E-04  sigma(3 1)= -5.58245560E-08
  sigma(3 3)=  4.23441207E-04  sigma(2 1)= -3.83809998E-07
 
 
 scprqt:  WARNING -
  nstep=   10 was not enough SCF cycles to converge;
  maximum force difference=  3.868E-03 exceeds toldff=  5.000E-05
 

--- !ResultsGS
iteration_state: {dtset: 11, itime: 1, icycle: 1, }
comment   : Summary of ground state results
lattice_vectors:
- [  2.9763187,  -5.1551351,   0.0000000, ]
- [  2.9763187,   5.1551351,   0.0000000, ]
- [  0.0000000,   0.0000000,  37.7945227, ]
lattice_lengths: [   5.95264,    5.95264,   37.79452, ]
lattice_angles: [ 90.000,  90.000, 120.000, ] # degrees, (23, 13, 12)
lattice_volume:   1.1597873E+03
convergence: {deltae: -5.803E-04, res2:  5.369E+01, residm:  1.548E-04, diffor:  3.868E-03, }
etotal    :  -9.23274575E+01
entropy   :   0.00000000E+00
fermie    :  -6.95730290E-02
cartesian_stress_tensor: # hartree/bohr^3
- [  1.47777792E-04,  -3.83809998E-07,  -5.58245560E-08, ]
- [ -3.83809998E-07,   1.48933121E-04,   7.02190613E-08, ]
- [ -5.58245560E-08,   7.02190613E-08,   4.23441207E-04, ]
pressure_GPa:  -7.0625E+00
xred      :
- [  3.3333E-01,   6.6667E-01,   0.0000E+00, Mo]
- [  6.6667E-01,   3.3333E-01,  -9.1944E-02,  S]
- [  6.6667E-01,   3.3333E-01,   9.1944E-02,  S]
cartesian_forces: # hartree/bohr
- [ -2.98921743E-05,   3.42533416E-05,   7.56929329E-05, ]
- [  1.62766519E-05,  -3.34674861E-05,   7.08941535E-02, ]
- [  1.36155224E-05,  -7.85855507E-07,  -7.09698465E-02, ]
force_length_stats: {min:   8.82963962E-05, max:   7.09698478E-02, mean:   4.73174358E-02, }
...

 Integrated electronic density in atomic spheres:
 ------------------------------------------------
 Atom  Sphere_radius  Integrated_density
    1        2.00000         10.41979836
    2        2.00000          3.81717058
    3        2.00000          3.81704798
 
---OUTPUT-----------------------------------------------------------------------
 
 Cartesian coordinates (xcart) [bohr]
  2.97631865929489E+00  1.71837837912920E+00  0.00000000000000E+00
  2.97631865929489E+00 -1.71837837912920E+00 -3.47498847295358E+00
  2.97631865929489E+00 -1.71837837912920E+00  3.47498847295358E+00
 Reduced coordinates (xred)
  3.33333333333333E-01  6.66666666666667E-01  0.00000000000000E+00
  6.66666666666667E-01  3.33333333333333E-01 -9.19442350000000E-02
  6.66666666666667E-01  3.33333333333333E-01  9.19442350000000E-02
 Cartesian forces (fcart) [Ha/bohr]; max,rms= 7.09698E-02 3.34377E-02 (free atoms)
 -2.98921743384108E-05  3.42533415804876E-05  7.56929329085236E-05
  1.62766519371154E-05 -3.34674860735955E-05  7.08941535283085E-02
  1.36155224012953E-05 -7.85855506892074E-07 -7.09698464612170E-02
 Gradient of E wrt nuclear positions in reduced coordinates (gred)
  2.65549241004819E-04 -8.76119685042037E-05 -2.86077826783993E-03
 -2.20973916289308E-04  1.24084910546738E-04 -2.67941069182503E+00
 -4.45753247155117E-05 -3.64729420425339E-05  2.68227147009287E+00
 Total energy (etotal) [Ha]= -9.23274574955698E+01
 
--- Iteration: ( 2/10) Internal Cycle: (1/1)
--------------------------------------------------------------------------------
 
---SELF-CONSISTENT-FIELD CONVERGENCE--------------------------------------------

--- !BeginCycle
iteration_state: {dtset: 11, itime: 2, icycle: 1, }
solver: {iscf: 7, nstep: 10, nline: 4, wfoptalg: 0, }
tolerances: {toldff: 5.00E-05, }
...
 
     iter   Etot(hartree)      deltaE(h)  residm     vres2    diffor    maxfor
 ETOT  1  -92.336331824137    -9.234E+01 3.118E-04 8.781E+01 6.459E-03 6.552E-02
 ETOT  2  -92.335151207702     1.181E-03 8.496E-05 2.289E+01 4.431E-03 6.894E-02
 ETOT  3  -92.327243537324     7.908E-03 6.002E-05 1.395E+02 3.238E-02 3.708E-02
 ETOT  4  -92.336791609123    -9.548E-03 8.635E-05 1.218E+00 2.483E-02 6.173E-02
 ETOT  5  -92.336814152771    -2.254E-05 2.489E-05 2.875E-01 1.100E-03 6.063E-02
 ETOT  6  -92.336815265122    -1.112E-06 1.053E-05 1.746E-01 1.866E-04 6.044E-02
 ETOT  7  -92.336817527902    -2.263E-06 1.175E-05 8.820E-02 2.097E-04 6.023E-02
 ETOT  8  -92.336817659000    -1.311E-07 5.438E-06 6.270E-02 4.069E-05 6.019E-02
 ETOT  9  -92.336818249665    -5.907E-07 6.042E-06 2.493E-02 1.796E-04 6.001E-02
 ETOT 10  -92.336818315688    -6.602E-08 2.930E-06 1.507E-02 6.484E-05 5.995E-02
 
 Cartesian components of stress tensor (hartree/bohr^3)
  sigma(1 1)=  1.49611239E-04  sigma(3 2)=  4.68556304E-09
  sigma(2 2)=  1.49611182E-04  sigma(3 1)= -7.01758391E-10
  sigma(3 3)=  4.34696890E-04  sigma(2 1)=  1.63116179E-10
 
 
 scprqt:  WARNING -
  nstep=   10 was not enough SCF cycles to converge;
  maximum force difference=  6.484E-05 exceeds toldff=  5.000E-05
 

--- !ResultsGS
iteration_state: {dtset: 11, itime: 2, icycle: 1, }
comment   : Summary of ground state results
lattice_vectors:
- [  2.9763187,  -5.1551351,   0.0000000, ]
- [  2.9763187,   5.1551351,   0.0000000, ]
- [  0.0000000,   0.0000000,  37.7945227, ]
lattice_lengths: [   5.95264,    5.95264,   37.79452, ]
lattice_angles: [ 90.000,  90.000, 120.000, ] # degrees, (23, 13, 12)
lattice_volume:   1.1597873E+03
convergence: {deltae: -6.602E-08, res2:  1.507E-02, residm:  2.930E-06, diffor:  6.484E-05, }
etotal    :  -9.23368183E+01
entropy   :   0.00000000E+00
fermie    :  -5.41267313E-02
cartesian_stress_tensor: # hartree/bohr^3
- [  1.49611239E-04,   1.63116179E-10,  -7.01758391E-10, ]
- [  1.63116179E-10,   1.49611182E-04,   4.68556304E-09, ]
- [ -7.01758391E-10,   4.68556304E-09,   4.34696890E-04, ]
pressure_GPa:  -7.1975E+00
xred      :
- [  3.3332E-01,   6.6666E-01,   2.0027E-06, Mo]
- [  6.6667E-01,   3.3333E-01,  -9.0068E-02,  S]
- [  6.6667E-01,   3.3334E-01,   9.0066E-02,  S]
cartesian_forces: # hartree/bohr
- [  5.38516757E-06,  -6.14104813E-06,  -8.20191153E-05, ]
- [ -2.75301066E-06,   3.89015665E-06,   5.99482251E-02, ]
- [ -2.63215691E-06,   2.25089148E-06,  -5.98662059E-02, ]
force_length_stats: {min:   8.24248008E-05, max:   5.99482252E-02, mean:   3.99656187E-02, }
...

 Integrated electronic density in atomic spheres:
 ------------------------------------------------
 Atom  Sphere_radius  Integrated_density
    1        2.00000         10.40938975
    2        2.00000          3.81960120
    3        2.00000          3.81970067
 
---OUTPUT-----------------------------------------------------------------------
 
 Cartesian coordinates (xcart) [bohr]
  2.97628876712055E+00  1.71841263247078E+00  7.56929329085275E-05
  2.97633493594683E+00 -1.71841184661528E+00 -3.40409431942527E+00
  2.97633227481729E+00 -1.71837916498471E+00  3.40401862649236E+00
 Reduced coordinates (xred)
  3.33324989409848E-01  6.66664967252136E-01  2.00274874732624E-06
  6.66672647060251E-01  3.33332821659265E-01 -9.00684564865269E-02
  6.66669030196567E-01  3.33335544421933E-01  9.00664537377796E-02
 Cartesian forces (fcart) [Ha/bohr]; max,rms= 5.99482E-02 2.82406E-02 (free atoms)
  5.38516757493981E-06 -6.14104812567866E-06 -8.20191153315925E-05
 -2.75301066222857E-06  3.89015664515831E-06  5.99482250568852E-02
 -2.63215691271124E-06  2.25089148052034E-06 -5.98662059415537E-02
 Gradient of E wrt nuclear positions in reduced coordinates (gred)
 -4.76859077097975E-05  1.56299582363512E-05  3.09987331276544E-03
  2.82481202146262E-05 -1.18604462081689E-05 -2.26571455020212E+00
  1.94377874951713E-05 -3.76951202818233E-06  2.26261467688935E+00
 Total energy (etotal) [Ha]= -9.23368183156882E+01
 
 Difference of energy with previous step (new-old):
           Absolute (Ha)=-9.36082E-03
           Relative     =-1.01382E-04
 
--- Iteration: ( 3/10) Internal Cycle: (1/1)
--------------------------------------------------------------------------------
 
---SELF-CONSISTENT-FIELD CONVERGENCE--------------------------------------------

--- !BeginCycle
iteration_state: {dtset: 11, itime: 3, icycle: 1, }
solver: {iscf: 7, nstep: 10, nline: 4, wfoptalg: 0, }
tolerances: {toldff: 5.00E-05, }
...
 
     iter   Etot(hartree)      deltaE(h)  residm     vres2    diffor    maxfor
 ETOT  1  -91.954287668647    -9.195E+01 1.149E-01 9.574E+03 2.151E-01 2.749E-01
 ETOT  2  -91.868645140788     8.564E-02 6.386E-04 4.582E+03 4.178E-01 1.429E-01
 ETOT  3  -92.320513248886    -4.519E-01 5.465E-03 1.099E+03 1.954E-01 5.252E-02
 ETOT  4  -92.363839203505    -4.333E-02 1.357E-03 1.857E+02 3.800E-02 1.452E-02
 ETOT  5  -92.364228296381    -3.891E-04 6.021E-04 1.700E+02 1.080E-03 1.558E-02
 ETOT  6  -92.364382032886    -1.537E-04 2.447E-04 1.558E+02 1.257E-03 1.432E-02
 ETOT  7  -92.364441195778    -5.916E-05 1.381E-04 1.472E+02 3.211E-04 1.400E-02
 ETOT  8  -92.364558335801    -1.171E-04 5.869E-05 1.291E+02 1.002E-03 1.300E-02
 ETOT  9  -92.364686429632    -1.281E-04 3.043E-05 1.053E+02 1.314E-03 1.169E-02
 ETOT 10  -92.364728049737    -4.162E-05 2.543E-05 9.564E+01 4.538E-04 1.123E-02
 
 Cartesian components of stress tensor (hartree/bohr^3)
  sigma(1 1)=  6.22295761E-05  sigma(3 2)=  1.83331590E-09
  sigma(2 2)=  6.22314393E-05  sigma(3 1)= -4.28642313E-09
  sigma(3 3)=  7.90192573E-05  sigma(2 1)= -1.10539539E-08
 
 
 scprqt:  WARNING -
  nstep=   10 was not enough SCF cycles to converge;
  maximum force difference=  4.538E-04 exceeds toldff=  5.000E-05
 

--- !ResultsGS
iteration_state: {dtset: 11, itime: 3, icycle: 1, }
comment   : Summary of ground state results
lattice_vectors:
- [  2.9763187,  -5.1551351,   0.0000000, ]
- [  2.9763187,   5.1551351,   0.0000000, ]
- [  0.0000000,   0.0000000,  37.7945227, ]
lattice_lengths: [   5.95264,    5.95264,   37.79452, ]
lattice_angles: [ 90.000,  90.000, 120.000, ] # degrees, (23, 13, 12)
lattice_volume:   1.1597873E+03
convergence: {deltae: -4.162E-05, res2:  9.564E+01, residm:  2.543E-05, diffor:  4.538E-04, }
etotal    :  -9.23647280E+01
entropy   :   0.00000000E+00
fermie    :  -8.51010812E-02
cartesian_stress_tensor: # hartree/bohr^3
- [  6.22295761E-05,  -1.10539539E-08,  -4.28642313E-09, ]
- [ -1.10539539E-08,   6.22314393E-05,   1.83331590E-09, ]
- [ -4.28642313E-09,   1.83331590E-09,   7.90192573E-05, ]
pressure_GPa:  -1.9955E+00
xred      :
- [  3.3333E-01,   6.6667E-01,  -1.1959E-05, Mo]
- [  6.6667E-01,   3.3333E-01,  -7.9863E-02,  S]
- [  6.6666E-01,   3.3333E-01,   7.9875E-02,  S]
cartesian_forces: # hartree/bohr
- [ -3.03174611E-06,   8.95464308E-07,   1.97531598E-04, ]
- [  2.37348840E-07,  -2.49686519E-07,   1.10352471E-02, ]
- [  2.79439726E-06,  -6.45777788E-07,  -1.12327787E-02, ]
force_length_stats: {min:   1.97556892E-04, max:   1.12327791E-02, mean:   7.48852772E-03, }
...

 Integrated electronic density in atomic spheres:
 ------------------------------------------------
 Atom  Sphere_radius  Integrated_density
    1        2.00000         10.51028195
    2        2.00000          3.92504934
    3        2.00000          3.92478858
 
---OUTPUT-----------------------------------------------------------------------
 
 Cartesian coordinates (xcart) [bohr]
  2.97632340974419E+00  1.71837312731417E+00 -4.51989248117639E-04
  2.97631722605658E+00 -1.71838682309318E+00 -3.01838999341542E+00
  2.97631534208390E+00 -1.71836468335019E+00  3.01884198266354E+00
 Reduced coordinates (xred)
  3.33334640751493E-01  6.66666955330731E-01 -1.19591204315792E-05
  6.66667244878706E-01  3.33332273573961E-01 -7.98631595575780E-02
  6.66664781036468E-01  3.33334104428642E-01  7.98751186780096E-02
 Cartesian forces (fcart) [Ha/bohr]; max,rms= 1.12328E-02 5.24924E-03 (free atoms)
 -3.03174610533199E-06  8.95464307526603E-07  1.97531598343488E-04
  2.37348840344150E-07 -2.49686519242232E-07  1.10352471447654E-02
  2.79439726498784E-06 -6.45777788284371E-07 -1.12327787431089E-02
 Gradient of E wrt nuclear positions in reduced coordinates (gred)
  1.36396820195511E-05  4.40720298753736E-06 -7.46561246920720E-03
 -1.99359353095593E-06  5.80741966399338E-07 -4.17071898246299E-01
 -1.16460884885951E-05 -4.98794495393670E-06  4.24537510715506E-01
 Total energy (etotal) [Ha]= -9.23647280497370E+01
 
 Difference of energy with previous step (new-old):
           Absolute (Ha)=-2.79097E-02
           Relative     =-3.02214E-04
 
--- Iteration: ( 4/10) Internal Cycle: (1/1)
--------------------------------------------------------------------------------
 
---SELF-CONSISTENT-FIELD CONVERGENCE--------------------------------------------

--- !BeginCycle
iteration_state: {dtset: 11, itime: 4, icycle: 1, }
solver: {iscf: 7, nstep: 10, nline: 4, wfoptalg: 0, }
tolerances: {toldff: 5.00E-05, }
...
 
     iter   Etot(hartree)      deltaE(h)  residm     vres2    diffor    maxfor
 ETOT  1  -92.357837632200    -9.236E+01 6.817E-04 2.664E+02 2.336E-02 3.459E-02
 ETOT  2  -92.360638760679    -2.801E-03 1.287E-04 3.391E+01 5.900E-02 2.452E-02
 ETOT  3  -92.352897323859     7.741E-03 2.200E-04 1.627E+02 3.866E-02 1.425E-02
 ETOT  4  -92.364755650507    -1.186E-02 1.271E-04 3.384E+00 2.267E-02 8.594E-03
 ETOT  5  -92.364775440047    -1.979E-05 1.111E-04 3.082E+00 2.126E-04 8.381E-03
 ETOT  6  -92.364780033481    -4.593E-06 4.749E-05 2.841E+00 2.739E-04 8.651E-03
 ETOT  7  -92.364780400366    -3.669E-07 5.055E-05 2.764E+00 1.750E-05 8.634E-03
 ETOT  8  -92.364782662525    -2.262E-06 2.599E-05 2.347E+00 1.296E-04 8.762E-03
 ETOT  9  -92.364784104845    -1.442E-06 3.134E-05 2.007E+00 1.008E-04 8.861E-03
 ETOT 10  -92.364784928109    -8.233E-07 1.599E-05 1.859E+00 6.095E-05 8.921E-03
 
 Cartesian components of stress tensor (hartree/bohr^3)
  sigma(1 1)=  3.47265195E-05  sigma(3 2)=  4.83717912E-09
  sigma(2 2)=  3.47207060E-05  sigma(3 1)=  4.37756484E-10
  sigma(3 3)=  2.86623418E-05  sigma(2 1)= -2.30470558E-09
 
 
 scprqt:  WARNING -
  nstep=   10 was not enough SCF cycles to converge;
  maximum force difference=  6.095E-05 exceeds toldff=  5.000E-05
 

--- !ResultsGS
iteration_state: {dtset: 11, itime: 4, icycle: 1, }
comment   : Summary of ground state results
lattice_vectors:
- [  2.9763187,  -5.1551351,   0.0000000, ]
- [  2.9763187,   5.1551351,   0.0000000, ]
- [  0.0000000,   0.0000000,  37.7945227, ]
lattice_lengths: [   5.95264,    5.95264,   37.79452, ]
lattice_angles: [ 90.000,  90.000, 120.000, ] # degrees, (23, 13, 12)
lattice_volume:   1.1597873E+03
convergence: {deltae: -8.233E-07, res2:  1.859E+00, residm:  1.599E-05, diffor:  6.095E-05, }
etotal    :  -9.23647849E+01
entropy   :   0.00000000E+00
fermie    :  -6.54856266E-02
cartesian_stress_tensor: # hartree/bohr^3
- [  3.47265195E-05,  -2.30470558E-09,   4.37756484E-10, ]
- [ -2.30470558E-09,   3.47207060E-05,   4.83717912E-09, ]
- [  4.37756484E-10,   4.83717912E-09,   2.86623418E-05, ]
pressure_GPa:  -9.6216E-01
xred      :
- [  3.3334E-01,   6.6667E-01,  -8.2316E-06, Mo]
- [  6.6667E-01,   3.3333E-01,  -7.7537E-02,  S]
- [  6.6666E-01,   3.3333E-01,   7.7545E-02,  S]
cartesian_forces: # hartree/bohr
- [ -2.69719671E-06,   4.00216624E-06,   1.63576265E-04, ]
- [  1.53835402E-06,  -1.04918746E-06,  -8.92136362E-03, ]
- [  1.15884269E-06,  -2.95297878E-06,   8.75778735E-03, ]
force_length_stats: {min:   1.63647446E-04, max:   8.92136381E-03, mean:   5.94759973E-03, }
...

 Integrated electronic density in atomic spheres:
 ------------------------------------------------
 Atom  Sphere_radius  Integrated_density
    1        2.00000         10.53072962
    2        2.00000          3.94825275
    3        2.00000          3.94805524
 
---OUTPUT-----------------------------------------------------------------------
 
 Cartesian coordinates (xcart) [bohr]
  2.97632636610601E+00  1.71836660935522E+00 -3.11107601948024E-04
  2.97631410253372E+00 -1.71838230408334E+00 -2.93047255708426E+00
  2.97631550924494E+00 -1.71836268440107E+00  2.93078366468621E+00
 Reduced coordinates (xred)
  3.33335769580079E-01  6.66666819796933E-01 -8.23155261849922E-06
  6.66666281847684E-01  3.33332187146503E-01 -7.75369643803723E-02
  6.66664615238904E-01  3.33334326389897E-01  7.75451959329908E-02
 Cartesian forces (fcart) [Ha/bohr]; max,rms= 8.92136E-03 4.16755E-03 (free atoms)
 -2.69719671303097E-06  4.00216624212714E-06  1.63576265070190E-04
  1.53835402447898E-06 -1.04918746385329E-06 -8.92136361861029E-03
  1.15884268855200E-06 -2.95297877827385E-06  8.75778735354010E-03
 Gradient of E wrt nuclear positions in reduced coordinates (gred)
  2.86594247252391E-05 -1.26039909156732E-05 -6.18228685645936E-03
 -9.98733494827488E-06  8.30071372958542E-07  3.37178679421262E-01
 -1.86720897769642E-05  1.17739195427147E-05 -3.30996392564803E-01
 Total energy (etotal) [Ha]= -9.23647849281093E+01
 
 Difference of energy with previous step (new-old):
           Absolute (Ha)=-5.68784E-05
           Relative     =-6.15802E-07
 
--- Iteration: ( 5/10) Internal Cycle: (1/1)
--------------------------------------------------------------------------------
 
---SELF-CONSISTENT-FIELD CONVERGENCE--------------------------------------------

--- !BeginCycle
iteration_state: {dtset: 11, itime: 5, icycle: 1, }
solver: {iscf: 7, nstep: 10, nline: 4, wfoptalg: 0, }
tolerances: {toldff: 5.00E-05, }
...
 
     iter   Etot(hartree)      deltaE(h)  residm     vres2    diffor    maxfor
 ETOT  1  -92.358843353420    -9.236E+01 4.617E-05 2.074E+02 2.708E-02 3.600E-02
 ETOT  2  -92.356888657436     1.955E-03 2.969E-05 7.290E+01 5.327E-02 1.736E-02
 ETOT  3  -92.349414221641     7.474E-03 2.081E-04 2.144E+02 4.635E-02 2.908E-02
 ETOT  4  -92.365146435039    -1.573E-02 1.061E-04 4.892E+00 2.533E-02 3.776E-03
 ETOT  5  -92.365186179206    -3.974E-05 2.676E-06 3.851E+00 1.634E-04 3.612E-03
 ETOT  6  -92.365206446651    -2.027E-05 3.407E-07 2.907E+00 7.475E-04 2.865E-03
 ETOT  7  -92.365206982017    -5.354E-07 1.214E-06 2.727E+00 1.066E-05 2.875E-03
 ETOT  8  -92.365209591770    -2.610E-06 2.045E-07 2.429E+00 1.154E-04 2.759E-03
 ETOT  9  -92.365217042256    -7.450E-06 6.298E-07 1.509E+00 3.723E-04 2.387E-03
 ETOT 10  -92.365217883975    -8.417E-07 9.949E-08 1.415E+00 7.143E-05 2.316E-03
 
 Cartesian components of stress tensor (hartree/bohr^3)
  sigma(1 1)=  4.86837221E-05  sigma(3 2)=  4.84659797E-09
  sigma(2 2)=  4.86764109E-05  sigma(3 1)=  3.74041175E-10
  sigma(3 3)=  8.09607459E-05  sigma(2 1)=  1.13849048E-09
 
 
 scprqt:  WARNING -
  nstep=   10 was not enough SCF cycles to converge;
  maximum force difference=  7.143E-05 exceeds toldff=  5.000E-05
 

--- !ResultsGS
iteration_state: {dtset: 11, itime: 5, icycle: 1, }
comment   : Summary of ground state results
lattice_vectors:
- [  2.9763187,  -5.1551351,   0.0000000, ]
- [  2.9763187,   5.1551351,   0.0000000, ]
- [  0.0000000,   0.0000000,  37.7945227, ]
lattice_lengths: [   5.95264,    5.95264,   37.79452, ]
lattice_angles: [ 90.000,  90.000, 120.000, ] # degrees, (23, 13, 12)
lattice_volume:   1.1597873E+03
convergence: {deltae: -8.417E-07, res2:  1.415E+00, residm:  9.949E-08, diffor:  7.143E-05, }
etotal    :  -9.23652179E+01
entropy   :   0.00000000E+00
fermie    :  -5.74971354E-02
cartesian_stress_tensor: # hartree/bohr^3
- [  4.86837221E-05,   1.13849048E-09,   3.74041175E-10, ]
- [  1.13849048E-09,   4.86764109E-05,   4.84659797E-09, ]
- [  3.74041175E-10,   4.84659797E-09,   8.09607459E-05, ]
pressure_GPa:  -1.7488E+00
xred      :
- [  3.3333E-01,   6.6667E-01,  -5.1555E-06, Mo]
- [  6.6667E-01,   3.3333E-01,  -7.8569E-02,  S]
- [  6.6667E-01,   3.3333E-01,   7.8574E-02,  S]
cartesian_forces: # hartree/bohr
- [ -4.08824942E-07,   1.56392469E-06,   9.40601159E-05, ]
- [  2.67311886E-07,   1.50494572E-07,  -2.31563239E-03, ]
- [  1.41513056E-07,  -1.71441926E-06,   2.22157228E-03, ]
force_length_stats: {min:   9.40740050E-05, max:   2.31563241E-03, mean:   1.54375979E-03, }
...

 Integrated electronic density in atomic spheres:
 ------------------------------------------------
 Atom  Sphere_radius  Integrated_density
    1        2.00000         10.51485228
    2        2.00000          3.93351174
    3        2.00000          3.93340111
 
---OUTPUT-----------------------------------------------------------------------
 
 Cartesian coordinates (xcart) [bohr]
  2.97632221333154E+00  1.71837212018287E+00 -1.94851523089060E-04
  2.97631644697293E+00 -1.71838499841293E+00 -2.96947016633282E+00
  2.97631731758020E+00 -1.71836550089914E+00  2.96966501785591E+00
 Reduced coordinates (xred)
  3.33334537445162E-01  6.66666656659725E-01 -5.15554925388894E-06
  6.66666937021334E-01  3.33332319670501E-01 -7.85687966805642E-02
  6.66665192200172E-01  3.33334357003108E-01  7.85739522298182E-02
 Cartesian forces (fcart) [Ha/bohr]; max,rms= 2.31563E-03 1.07012E-03 (free atoms)
 -4.08824941932480E-07  1.56392468747739E-06  9.40601159318210E-05
  2.67311886240380E-07  1.50494571990316E-07 -2.31563239402558E-03
  1.41513055692100E-07 -1.71441925946770E-06  2.22157227809376E-03
 Gradient of E wrt nuclear positions in reduced coordinates (gred)
  9.27903641170141E-06 -6.84544980558383E-06 -3.55495718277231E-03
 -1.97854988151674E-08 -1.57142521092194E-06  8.75182209829336E-02
 -9.25925091288624E-06  8.41687501650577E-06 -8.39632638001613E-02
 Total energy (etotal) [Ha]= -9.23652178839747E+01
 
 Difference of energy with previous step (new-old):
           Absolute (Ha)=-4.32956E-04
           Relative     =-4.68745E-06
 
--- Iteration: ( 6/10) Internal Cycle: (1/1)
--------------------------------------------------------------------------------
 
---SELF-CONSISTENT-FIELD CONVERGENCE--------------------------------------------

--- !BeginCycle
iteration_state: {dtset: 11, itime: 6, icycle: 1, }
solver: {iscf: 7, nstep: 10, nline: 4, wfoptalg: 0, }
tolerances: {toldff: 5.00E-05, }
...
 
     iter   Etot(hartree)      deltaE(h)  residm     vres2    diffor    maxfor
 ETOT  1  -92.364960348171    -9.236E+01 5.153E-07 2.411E+01 4.992E-03 7.307E-03
 ETOT  2  -92.364941463485     1.888E-05 3.697E-07 3.125E+00 1.217E-02 4.884E-03
 ETOT  3  -92.364276002014     6.655E-04 1.002E-05 1.169E+01 1.082E-02 5.950E-03
 ETOT  4  -92.365230608561    -9.546E-04 6.788E-06 1.954E-01 6.569E-03 6.921E-04
 ETOT  5  -92.365232139914    -1.531E-06 2.384E-07 4.839E-02 4.476E-05 6.473E-04
 ETOT  6  -92.365232279882    -1.400E-07 1.243E-08 3.432E-02 3.093E-04 9.474E-04
 ETOT  7  -92.365232407428    -1.275E-07 6.165E-09 3.400E-02 5.072E-05 8.967E-04
 ETOT  8  -92.365232402493     4.936E-09 4.699E-09 3.513E-02 8.202E-06 9.046E-04
 ETOT  9  -92.365232522334    -1.198E-07 3.749E-09 2.747E-02 3.587E-05 8.687E-04
 
 At SCF step    9, forces are converged : 
  for the second time, max diff in force=  3.587E-05 < toldff=  5.000E-05
 
 Cartesian components of stress tensor (hartree/bohr^3)
  sigma(1 1)=  5.25278806E-05  sigma(3 2)=  4.36948537E-09
  sigma(2 2)=  5.25292291E-05  sigma(3 1)=  2.16368592E-10
  sigma(3 3)=  8.80193880E-05  sigma(2 1)= -2.10866172E-09
 

--- !ResultsGS
iteration_state: {dtset: 11, itime: 6, icycle: 1, }
comment   : Summary of ground state results
lattice_vectors:
- [  2.9763187,  -5.1551351,   0.0000000, ]
- [  2.9763187,   5.1551351,   0.0000000, ]
- [  0.0000000,   0.0000000,  37.7945227, ]
lattice_lengths: [   5.95264,    5.95264,   37.79452, ]
lattice_angles: [ 90.000,  90.000, 120.000, ] # degrees, (23, 13, 12)
lattice_volume:   1.1597873E+03
convergence: {deltae: -1.198E-07, res2:  2.747E-02, residm:  3.749E-09, diffor:  3.587E-05, }
etotal    :  -9.23652325E+01
entropy   :   0.00000000E+00
fermie    :  -5.99292555E-02
cartesian_stress_tensor: # hartree/bohr^3
- [  5.25278806E-05,  -2.10866172E-09,   2.16368592E-10, ]
- [ -2.10866172E-09,   5.25292291E-05,   4.36948537E-09, ]
- [  2.16368592E-10,   4.36948537E-09,   8.80193880E-05, ]
pressure_GPa:  -1.8935E+00
xred      :
- [  3.3333E-01,   6.6667E-01,  -2.2398E-06, Mo]
- [  6.6667E-01,   3.3333E-01,  -7.8926E-02,  S]
- [  6.6667E-01,   3.3333E-01,   7.8928E-02,  S]
cartesian_forces: # hartree/bohr
- [ -5.76560987E-07,   7.86130505E-07,   5.32635330E-05, ]
- [  2.39797130E-07,   1.55893117E-07,   8.15426809E-04, ]
- [  3.36763857E-07,  -9.42023622E-07,  -8.68690342E-04, ]
force_length_stats: {min:   5.32724541E-05, max:   8.68690918E-04, mean:   5.79130077E-04, }
...

 Integrated electronic density in atomic spheres:
 ------------------------------------------------
 Atom  Sphere_radius  Integrated_density
    1        2.00000         10.51222498
    2        2.00000          3.92993744
    3        2.00000          3.92987367
 
---OUTPUT-----------------------------------------------------------------------
 
 Cartesian coordinates (xcart) [bohr]
  2.97632116110024E+00  1.71837474460780E+00 -8.46508459898676E-05
  2.97631708471476E+00 -1.71838536359458E+00 -2.98296934153557E+00
  2.97631773206966E+00 -1.71836776014242E+00  2.98305399238156E+00
 Reduced coordinates (xred)
  3.33334106133189E-01  6.66666734437206E-01 -2.23976491928501E-06
  6.66667079576560E-01  3.33332391387303E-01 -7.89259694731672E-02
  6.66665480956918E-01  3.33334207508824E-01  7.89282092380865E-02
 Cartesian forces (fcart) [Ha/bohr]; max,rms= 8.68690E-04 3.97546E-04 (free atoms)
 -5.76560987246974E-07  7.86130504522079E-07  5.32635329768649E-05
  2.39797130215176E-07  1.55893117386303E-07  8.15426809313401E-04
  3.36763857031798E-07 -9.42023621908382E-07 -8.68690342290265E-04
 Gradient of E wrt nuclear positions in reduced coordinates (gred)
  5.76863821099867E-06 -2.33657976186936E-06 -2.01306980392396E-03
  8.99374140102254E-08 -1.51736276021982E-06 -3.08186670203018E-02
 -5.85857562500889E-06  3.85394252208918E-06  3.28317368242258E-02
 Total energy (etotal) [Ha]= -9.23652325223344E+01
 
 Difference of energy with previous step (new-old):
           Absolute (Ha)=-1.46384E-05
           Relative     =-1.58483E-07
 
--- Iteration: ( 7/10) Internal Cycle: (1/1)
--------------------------------------------------------------------------------
 
---SELF-CONSISTENT-FIELD CONVERGENCE--------------------------------------------

--- !BeginCycle
iteration_state: {dtset: 11, itime: 7, icycle: 1, }
solver: {iscf: 7, nstep: 10, nline: 4, wfoptalg: 0, }
tolerances: {toldff: 5.00E-05, }
...
 
     iter   Etot(hartree)      deltaE(h)  residm     vres2    diffor    maxfor
 ETOT  1  -92.365206068490    -9.237E+01 5.048E-08 6.372E+00 2.020E-03 2.836E-03
 ETOT  2  -92.365215694527    -9.626E-06 3.153E-08 1.463E-01 3.595E-03 7.594E-04
 ETOT  3  -92.365150718675     6.498E-05 8.419E-07 1.329E+00 3.096E-03 2.340E-03
 ETOT  4  -92.365236258984    -8.554E-05 5.888E-07 5.682E-02 2.049E-03 2.970E-04
 ETOT  5  -92.365236397976    -1.390E-07 1.599E-08 4.095E-02 1.337E-05 3.104E-04
 ETOT  6  -92.365236473893    -7.592E-08 1.571E-09 3.894E-02 9.478E-06 3.199E-04
 
 At SCF step    6, forces are converged : 
  for the second time, max diff in force=  9.478E-06 < toldff=  5.000E-05
 
 Cartesian components of stress tensor (hartree/bohr^3)
  sigma(1 1)=  5.20739172E-05  sigma(3 2)=  4.12860993E-09
  sigma(2 2)=  5.20716840E-05  sigma(3 1)=  1.72257042E-10
  sigma(3 3)=  8.33633361E-05  sigma(2 1)= -4.10942508E-12
 

--- !ResultsGS
iteration_state: {dtset: 11, itime: 7, icycle: 1, }
comment   : Summary of ground state results
lattice_vectors:
- [  2.9763187,  -5.1551351,   0.0000000, ]
- [  2.9763187,   5.1551351,   0.0000000, ]
- [  0.0000000,   0.0000000,  37.7945227, ]
lattice_lengths: [   5.95264,    5.95264,   37.79452, ]
lattice_angles: [ 90.000,  90.000, 120.000, ] # degrees, (23, 13, 12)
lattice_volume:   1.1597873E+03
convergence: {deltae: -7.592E-08, res2:  3.894E-02, residm:  1.571E-09, diffor:  9.478E-06, }
etotal    :  -9.23652365E+01
entropy   :   0.00000000E+00
fermie    :  -6.07383431E-02
cartesian_stress_tensor: # hartree/bohr^3
- [  5.20739172E-05,  -4.10942508E-12,   1.72257042E-10, ]
- [ -4.10942508E-12,   5.20716840E-05,   4.12860993E-09, ]
- [  1.72257042E-10,   4.12860993E-09,   8.33633361E-05, ]
pressure_GPa:  -1.8389E+00
xred      :
- [  3.3333E-01,   6.6667E-01,  -1.3270E-06, Mo]
- [  6.6667E-01,   3.3333E-01,  -7.8830E-02,  S]
- [  6.6667E-01,   3.3333E-01,   7.8831E-02,  S]
cartesian_forces: # hartree/bohr
- [ -6.78017955E-07,   9.93500127E-07,   1.57701997E-05, ]
- [  3.71936540E-07,   8.58860729E-08,   3.04084805E-04, ]
- [  3.06081415E-07,  -1.07938620E-06,  -3.19855005E-04, ]
force_length_stats: {min:   1.58160029E-05, max:   3.19856972E-04, mean:   2.13252673E-04, }
...

 Integrated electronic density in atomic spheres:
 ------------------------------------------------
 Atom  Sphere_radius  Integrated_density
    1        2.00000         10.51306808
    2        2.00000          3.93737358
    3        2.00000          3.93735048
 
---OUTPUT-----------------------------------------------------------------------
 
 Cartesian coordinates (xcart) [bohr]
  2.97632091488595E+00  1.71837503089553E+00 -5.01543694161288E-05
  2.97631715925667E+00 -1.71838510998269E+00 -2.97934834379801E+00
  2.97631790374204E+00 -1.71836830004205E+00  2.97939849816743E+00
 Reduced coordinates (xred)
  3.33334037003732E-01  6.66666720842226E-01 -1.32702746031094E-06
  6.66667067501074E-01  3.33332428507791E-01 -7.88301619994136E-02
  6.66665562161861E-01  3.33334183983316E-01  7.88314890268739E-02
 Cartesian forces (fcart) [Ha/bohr]; max,rms= 3.19855E-04 1.47206E-04 (free atoms)
 -6.78017954688355E-07  9.93500127168231E-07  1.57701996522530E-05
  3.71936540080132E-07  8.58860729113231E-08  3.04084804992321E-04
  3.06081414608223E-07 -1.07938620007955E-06 -3.19855004644574E-04
 Gradient of E wrt nuclear positions in reduced coordinates (gred)
  7.13962490443991E-06 -3.10362992468810E-06 -5.96027168073730E-04
 -6.64247352036682E-07 -1.54975597659147E-06 -1.14927400521485E-02
 -6.47537755240323E-06  4.65338590127957E-06  1.20887672202222E-02
 Total energy (etotal) [Ha]= -9.23652364738927E+01
 
 Difference of energy with previous step (new-old):
           Absolute (Ha)=-3.95156E-06
           Relative     =-4.27819E-08
 
 At Broyd/MD step   7, gradients are converged : 
  max grad (force/stress) = 3.1986E-04 < tolmxf= 5.0000E-04 ha/bohr (free atoms)
 
================================================================================
 
 ----iterations are completed or convergence reached----
 
 Mean square residual over all n,k,spin=   20.962E-11; max=  15.711E-10
 reduced coordinates (array xred) for    3 atoms
       0.333334037004      0.666666720842     -0.000001327027
       0.666667067501      0.333332428508     -0.078830161999
       0.666665562162      0.333334183983      0.078831489027
 rms dE/dt=  5.5635E-03; max dE/dt=  1.2075E-02; dE/dt below (all hartree)
    1       0.000008170207     -0.000003681961     -0.000609714069
    2       0.000000366334     -0.000002128087     -0.011506426953
    3      -0.000005444796      0.000004075055      0.012075080319
 
 cartesian coordinates (angstrom) at end:
    1      1.57500119360738     0.90932490216005    -0.00002654054921
    2      1.57499920621396    -0.90933023578326    -1.57660323998827
    3      1.57499960017865    -0.90932134034580     1.57662978053748
 
 cartesian forces (hartree/bohr) at end:
    1     -0.00000067801795     0.00000099350013     0.00001577019965
    2      0.00000037193654     0.00000008588607     0.00030408480499
    3      0.00000030608141    -0.00000107938620    -0.00031985500464
 frms,max,avg= 1.4720596E-04 3.1985500E-04  -7.597E-08  1.560E-07  3.621E-07 h/b
 
 cartesian forces (eV/Angstrom) at end:
    1     -0.00003486508211     0.00005108782632     0.00081093620307
    2      0.00001912574427     0.00000441643907     0.01563666805811
    3      0.00001573933784    -0.00005550426539    -0.01644760426118
 frms,max,avg= 7.5696340E-03 1.6447604E-02  -3.907E-06  8.024E-06  1.862E-05 e/A
 length scales=  5.952637318590  5.952637318590 37.794522657713 bohr
              =  3.150000000000  3.150000000000 20.000000000000 angstroms
 prteigrs : about to open file mos2_k_drafto_DS11_EIG
 Fermi (or HOMO) energy (hartree) =  -0.06074   Average Vxc (hartree)=  -0.14488
 Eigenvalues (hartree) for nkpt=  14  k points:
 kpt#   1, nband= 14, wtk=  0.03704, kpt=  0.0000  0.0000  0.0000 (reduced coord)
  -2.29804   -1.34717   -1.33786   -1.33786   -0.58132   -0.53431   -0.26946   -0.15383
  -0.15383   -0.13027   -0.11289   -0.11289   -0.06578    0.04338
 prteigrs : prtvol=0 or 1, do not print more k-points.
 

--- !EnergyTerms
iteration_state     : {dtset: 11, itime: 7, icycle: 1, }
comment             : Components of total free energy in Hartree
kinetic             :  2.99606989427760E+01
hartree             :  2.83864338046428E+02
xc                  : -1.66152176753028E+01
Ewald energy        :  2.07616792236418E+02
psp_core            :  7.63117176066322E-01
local_psp           : -6.09579115057687E+02
non_local_psp       :  1.16241498574080E+01
total_energy        : -9.23652364738927E+01
total_energy_eV     : -2.51338590501077E+03
band_energy         : -1.70878226586494E+01
...

 rms coord change=  6.1817E-03   atom, delta coord (reduced):
     1        0.000000703670      0.000000054176     -0.000001327027
     2        0.000000400834     -0.000000904826      0.013114073001
     3       -0.000001104505      0.000000850650     -0.013112745973
 
 Cartesian components of stress tensor (hartree/bohr^3)
  sigma(1 1)=  5.20739172E-05  sigma(3 2)=  4.12860993E-09
  sigma(2 2)=  5.20716840E-05  sigma(3 1)=  1.72257042E-10
  sigma(3 3)=  8.33633361E-05  sigma(2 1)= -4.10942508E-12
 
-Cartesian components of stress tensor (GPa)         [Pressure= -1.8389E+00 GPa]
- sigma(1 1)=  1.53206728E+00  sigma(3 2)=  1.21467877E-04
- sigma(2 2)=  1.53200158E+00  sigma(3 1)=  5.06797629E-06
- sigma(3 3)=  2.45263361E+00  sigma(2 1)= -1.20903440E-07
 
================================================================================
== DATASET 21 ==================================================================
-   mpi_nproc: 1, omp_nthreads: -1 (-1 if OMP is not activated)
 

--- !DatasetInfo
iteration_state: {dtset: 21, }
dimensions: {natom: 3, nkpt: 14, mband: 14, nsppol: 1, nspinor: 1, nspden: 1, mpw: 6951, }
cutoff_energies: {ecut:  25.0, pawecutdg:  -1.0, }
electrons: {nelect:   2.60000000E+01, charge:   0.00000000E+00, occopt:   1.00000000E+00, tsmear:   1.00000000E-02, }
meta: {optdriver: 0, ionmov: 2, optcell: 0, iscf: 7, paral_kgb: 0, }
...

 mkfilename : getwfk/=0, take file _WFK from output of DATASET  11.
 
 Exchange-correlation functional for the present dataset will be:
  GGA: Perdew-Burke-Ernzerhof functional - ixc=11
 Citation for XC functional:
  J.P.Perdew, K.Burke, M.Ernzerhof, PRL 77, 3865 (1996)
 
 Real(R)+Recip(G) space primitive vectors, cartesian coordinates (Bohr,Bohr^-1):
 R(1)=  2.9763187 -5.1551351  0.0000000  G(1)=  0.1679928 -0.0969907  0.0000000
 R(2)=  2.9763187  5.1551351  0.0000000  G(2)=  0.1679928  0.0969907  0.0000000
 R(3)=  0.0000000  0.0000000 37.7945227  G(3)=  0.0000000  0.0000000  0.0264589
 Unit cell volume ucvol=  1.1597873E+03 bohr^3
 Angles (23,13,12)=  9.00000000E+01  9.00000000E+01  1.20000000E+02 degrees
 
 getcut: wavevector=  0.0000  0.0000  0.0000  ngfft=  30  30 180
         ecut(hartree)=     25.000   => boxcut(ratio)=   2.11597
--------------------------------------------------------------------------------
 
-inwffil : will read wavefunctions from disk file mos2_k_drafto_DS11_WFK
_setup2: Arith. and geom. avg. npw (full set) are    6926.037    6926.015
 
================================================================================
 
=== [ionmov= 2] Broyden-Fletcher-Goldfard-Shanno method (forces)            
================================================================================
 
--- Iteration: ( 1/10) Internal Cycle: (1/1)
--------------------------------------------------------------------------------
 
---SELF-CONSISTENT-FIELD CONVERGENCE--------------------------------------------

--- !BeginCycle
iteration_state: {dtset: 21, itime: 1, icycle: 1, }
solver: {iscf: 7, nstep: 10, nline: 4, wfoptalg: 0, }
tolerances: {toldff: 5.00E-05, }
...
 
     iter   Etot(hartree)      deltaE(h)  residm     vres2    diffor    maxfor
 ETOT  1  -37.580056654422    -3.758E+01 2.171E-02 5.094E+06 1.347E+00 1.347E+00
 ETOT  2  -90.356188441896    -5.278E+01 1.266E-01 1.883E+04 1.453E+00 1.411E-01
 ETOT  3  -85.633700728564     4.722E+00 1.419E-01 5.076E+05 3.824E-01 2.412E-01
 ETOT  4  -92.200357747892    -6.567E+00 3.982E-02 6.104E+03 2.655E-01 2.610E-02
 ETOT  5  -92.286400810079    -8.604E-02 2.249E-02 3.056E+03 4.646E-02 6.496E-02
 ETOT  6  -92.309257996229    -2.286E-02 5.886E-03 9.656E+02 3.055E-02 8.521E-02
 ETOT  7  -92.317262910742    -8.005E-03 1.270E-02 6.759E+02 5.730E-03 8.948E-02
 ETOT  8  -92.322754669602    -5.492E-03 1.077E-02 7.622E+02 8.268E-03 8.175E-02
 ETOT  9  -92.326789961469    -4.035E-03 9.516E-04 8.603E+02 1.260E-02 6.915E-02
 ETOT 10  -92.326236691599     5.533E-04 2.700E-04 1.018E+03 1.342E-02 5.595E-02
 
 Cartesian components of stress tensor (hartree/bohr^3)
  sigma(1 1)=  1.50346699E-04  sigma(3 2)=  3.16372520E-08
  sigma(2 2)=  1.50308405E-04  sigma(3 1)= -2.32945848E-08
  sigma(3 3)=  5.73607178E-04  sigma(2 1)=  1.38481978E-07
 
 
 scprqt:  WARNING -
  nstep=   10 was not enough SCF cycles to converge;
  maximum force difference=  1.342E-02 exceeds toldff=  5.000E-05
 

--- !ResultsGS
iteration_state: {dtset: 21, itime: 1, icycle: 1, }
comment   : Summary of ground state results
lattice_vectors:
- [  2.9763187,  -5.1551351,   0.0000000, ]
- [  2.9763187,   5.1551351,   0.0000000, ]
- [  0.0000000,   0.0000000,  37.7945227, ]
lattice_lengths: [   5.95264,    5.95264,   37.79452, ]
lattice_angles: [ 90.000,  90.000, 120.000, ] # degrees, (23, 13, 12)
lattice_volume:   1.1597873E+03
convergence: {deltae:  5.533E-04, res2:  1.018E+03, residm:  2.700E-04, diffor:  1.342E-02, }
etotal    :  -9.23262367E+01
entropy   :   0.00000000E+00
fermie    :   2.34893741E-02
cartesian_stress_tensor: # hartree/bohr^3
- [  1.50346699E-04,   1.38481978E-07,  -2.32945848E-08, ]
- [  1.38481978E-07,   1.50308405E-04,   3.16372520E-08, ]
- [ -2.32945848E-08,   3.16372520E-08,   5.73607178E-04, ]
pressure_GPa:  -8.5739E+00
xred      :
- [  3.3333E-01,   6.6667E-01,   0.0000E+00, Mo]
- [  6.6667E-01,   3.3333E-01,  -9.1944E-02,  S]
- [  6.6667E-01,   3.3333E-01,   9.1944E-02,  S]
cartesian_forces: # hartree/bohr
- [ -2.86285200E-05,   4.78566828E-05,   2.22380152E-04, ]
- [  1.53577174E-05,  -2.03104443E-05,   5.57319427E-02, ]
- [  1.32708026E-05,  -2.75462386E-05,  -5.59543228E-02, ]
force_length_stats: {min:   2.29265755E-04, max:   5.59543312E-02, mean:   3.73051818E-02, }
...

 Integrated electronic density in atomic spheres:
 ------------------------------------------------
 Atom  Sphere_radius  Integrated_density
    1        2.00000         10.36952544
    2        2.00000          3.83029859
    3        2.00000          3.82909996
 
---OUTPUT-----------------------------------------------------------------------
 
 Cartesian coordinates (xcart) [bohr]
  2.97631865929489E+00  1.71837837912920E+00  0.00000000000000E+00
  2.97631865929489E+00 -1.71837837912920E+00 -3.47498847295358E+00
  2.97631865929489E+00 -1.71837837912920E+00  3.47498847295358E+00
 Reduced coordinates (xred)
  3.33333333333333E-01  6.66666666666667E-01  0.00000000000000E+00
  6.66666666666667E-01  3.33333333333333E-01 -9.19442350000000E-02
  6.66666666666667E-01  3.33333333333333E-01  9.19442350000000E-02
 Cartesian forces (fcart) [Ha/bohr]; max,rms= 5.59543E-02 2.63249E-02 (free atoms)
 -2.86285200176464E-05  4.78566828307398E-05  2.22380152471801E-04
  1.53577174475115E-05 -2.03104442684823E-05  5.57319426567812E-02
  1.32708025701348E-05 -2.75462385622575E-05 -5.59543228092530E-02
 Gradient of E wrt nuclear positions in reduced coordinates (gred)
  3.31915265536079E-04 -1.61500068903043E-04 -8.40475171122114E-03
 -1.50412545907613E-04  5.89936239011985E-05 -2.10636216950007E+00
 -1.81502719628466E-04  1.02506445001844E-04  2.11476692121129E+00
 Total energy (etotal) [Ha]= -9.23262366915991E+01
 
--- Iteration: ( 2/10) Internal Cycle: (1/1)
--------------------------------------------------------------------------------
 
---SELF-CONSISTENT-FIELD CONVERGENCE--------------------------------------------

--- !BeginCycle
iteration_state: {dtset: 21, itime: 2, icycle: 1, }
solver: {iscf: 7, nstep: 10, nline: 4, wfoptalg: 0, }
tolerances: {toldff: 5.00E-05, }
...
 
     iter   Etot(hartree)      deltaE(h)  residm     vres2    diffor    maxfor
 ETOT  1  -92.194075678406    -9.219E+01 3.022E-03 3.655E+03 1.272E-01 1.830E-01
 ETOT  2  -91.941321162119     2.528E-01 2.094E-02 5.005E+03 2.570E-01 7.406E-02
 ETOT  3  -92.301631609684    -3.603E-01 3.707E-03 8.333E+02 1.837E-01 1.103E-01
 ETOT  4  -92.334043192398    -3.241E-02 3.238E-04 1.058E+02 4.301E-02 6.831E-02
 ETOT  5  -92.334648190288    -6.050E-04 6.522E-05 6.833E+01 2.294E-03 6.602E-02
 ETOT  6  -92.334749340594    -1.012E-04 3.802E-05 5.887E+01 1.521E-03 6.450E-02
 ETOT  7  -92.334767976636    -1.864E-05 4.245E-05 5.667E+01 1.157E-04 6.455E-02
 ETOT  8  -92.334779529633    -1.155E-05 2.503E-05 5.523E+01 7.526E-05 6.448E-02
 ETOT  9  -92.334798265193    -1.874E-05 2.771E-05 5.245E+01 1.093E-04 6.455E-02
 ETOT 10  -92.334855978969    -5.771E-05 1.714E-05 3.879E+01 2.733E-04 6.428E-02
 
 Cartesian components of stress tensor (hartree/bohr^3)
  sigma(1 1)=  1.48537232E-04  sigma(3 2)= -1.21161207E-08
  sigma(2 2)=  1.48521864E-04  sigma(3 1)= -1.78631847E-09
  sigma(3 3)=  4.12941472E-04  sigma(2 1)= -5.48454251E-09
 
 
 scprqt:  WARNING -
  nstep=   10 was not enough SCF cycles to converge;
  maximum force difference=  2.733E-04 exceeds toldff=  5.000E-05
 

--- !ResultsGS
iteration_state: {dtset: 21, itime: 2, icycle: 1, }
comment   : Summary of ground state results
lattice_vectors:
- [  2.9763187,  -5.1551351,   0.0000000, ]
- [  2.9763187,   5.1551351,   0.0000000, ]
- [  0.0000000,   0.0000000,  37.7945227, ]
lattice_lengths: [   5.95264,    5.95264,   37.79452, ]
lattice_angles: [ 90.000,  90.000, 120.000, ] # degrees, (23, 13, 12)
lattice_volume:   1.1597873E+03
convergence: {deltae: -5.771E-05, res2:  3.879E+01, residm:  1.714E-05, diffor:  2.733E-04, }
etotal    :  -9.23348560E+01
entropy   :   0.00000000E+00
fermie    :  -6.86101997E-02
cartesian_stress_tensor: # hartree/bohr^3
- [  1.48537232E-04,  -5.48454251E-09,  -1.78631847E-09, ]
- [ -5.48454251E-09,   1.48521864E-04,  -1.21161207E-08, ]
- [ -1.78631847E-09,  -1.21161207E-08,   4.12941472E-04, ]
pressure_GPa:  -6.9630E+00
xred      :
- [  3.3332E-01,   6.6667E-01,   5.8839E-06, Mo]
- [  6.6667E-01,   3.3333E-01,  -9.0470E-02,  S]
- [  6.6667E-01,   3.3333E-01,   9.0464E-02,  S]
cartesian_forces: # hartree/bohr
- [ -2.40103463E-07,  -8.94523590E-06,  -8.64214048E-05, ]
- [ -4.43371014E-06,   1.78048468E-06,   6.42803127E-02, ]
- [  4.67381361E-06,   7.16475122E-06,  -6.41938913E-02, ]
force_length_stats: {min:   8.68834513E-05, max:   6.42803129E-02, mean:   4.28536961E-02, }
...

 Integrated electronic density in atomic spheres:
 ------------------------------------------------
 Atom  Sphere_radius  Integrated_density
    1        2.00000         10.41685568
    2        2.00000          3.81976754
    3        2.00000          3.81984047
 
---OUTPUT-----------------------------------------------------------------------
 
 Cartesian coordinates (xcart) [bohr]
  2.97629003077487E+00  1.71842623581203E+00  2.22380152471801E-04
  2.97633401701234E+00 -1.71839868957347E+00 -3.41925653029679E+00
  2.97633193009746E+00 -1.71840592536776E+00  3.41903415014432E+00
 Reduced coordinates (xred)
  3.33323882297478E-01  6.66666498934072E-01  5.88392541654232E-06
  6.66671216575634E-01  3.33333943395191E-01 -9.04696313077793E-02
  6.66671567793555E-01  3.33332891004070E-01  9.04637473823628E-02
 Cartesian forces (fcart) [Ha/bohr]; max,rms= 6.42803E-02 3.02817E-02 (free atoms)
 -2.40103463496691E-07 -8.94523589998411E-06 -8.64214048483357E-05
 -4.43371014409498E-06  1.78048468160520E-06  6.42803127450284E-02
  4.67381360759167E-06  7.16475121837891E-06 -6.41938913401800E-02
 Gradient of E wrt nuclear positions in reduced coordinates (gred)
 -4.53992754816626E-05  4.68285243187957E-05  3.26625574365180E-03
  2.23747733754983E-05  4.01749508805153E-06 -2.42944373648684E+00
  2.30245021061643E-05 -5.08460194068472E-05  2.42617748074319E+00
 Total energy (etotal) [Ha]= -9.23348559789694E+01
 
 Difference of energy with previous step (new-old):
           Absolute (Ha)=-8.61929E-03
           Relative     =-9.33525E-05
 
--- Iteration: ( 3/10) Internal Cycle: (1/1)
--------------------------------------------------------------------------------
 
---SELF-CONSISTENT-FIELD CONVERGENCE--------------------------------------------

--- !BeginCycle
iteration_state: {dtset: 21, itime: 3, icycle: 1, }
solver: {iscf: 7, nstep: 10, nline: 4, wfoptalg: 0, }
tolerances: {toldff: 5.00E-05, }
...
 
     iter   Etot(hartree)      deltaE(h)  residm     vres2    diffor    maxfor
 ETOT  1  -90.689752220271    -9.069E+01 1.702E-03 4.643E+04 1.472E-01 8.303E-02
 ETOT  2  -84.962824182118     5.727E+00 1.942E-02 1.171E+05 1.301E+00 1.219E+00
 ETOT  3  -92.000439588491    -7.038E+00 5.961E-02 5.159E+03 1.172E+00 4.768E-02
 ETOT  4  -92.193504332112    -1.931E-01 3.159E-03 2.479E+03 1.198E-02 3.609E-02
 ETOT  5  -92.264875075093    -7.137E-02 3.141E-03 4.355E+02 4.650E-02 8.220E-02
 ETOT  6  -92.267824728661    -2.950E-03 1.401E-04 3.422E+02 4.234E-03 7.797E-02
 ETOT  7  -92.269350832555    -1.526E-03 2.825E-04 2.160E+02 6.131E-03 8.410E-02
 ETOT  8  -92.269475212474    -1.244E-04 3.843E-05 1.931E+02 1.638E-03 8.246E-02
 ETOT  9  -92.269608996836    -1.338E-04 4.717E-05 1.698E+02 6.320E-04 8.309E-02
 ETOT 10  -92.269559268246     4.973E-05 1.598E-05 1.712E+02 9.166E-04 8.221E-02
 
 Cartesian components of stress tensor (hartree/bohr^3)
  sigma(1 1)=  1.83348147E-04  sigma(3 2)= -2.81272589E-09
  sigma(2 2)=  1.83288827E-04  sigma(3 1)= -2.53697112E-09
  sigma(3 3)=  6.99372716E-04  sigma(2 1)= -9.50577059E-09
 
 
 scprqt:  WARNING -
  nstep=   10 was not enough SCF cycles to converge;
  maximum force difference=  9.166E-04 exceeds toldff=  5.000E-05
 

--- !ResultsGS
iteration_state: {dtset: 21, itime: 3, icycle: 1, }
comment   : Summary of ground state results
lattice_vectors:
- [  2.9763187,  -5.1551351,   0.0000000, ]
- [  2.9763187,   5.1551351,   0.0000000, ]
- [  0.0000000,   0.0000000,  37.7945227, ]
lattice_lengths: [   5.95264,    5.95264,   37.79452, ]
lattice_angles: [ 90.000,  90.000, 120.000, ] # degrees, (23, 13, 12)
lattice_volume:   1.1597873E+03
convergence: {deltae:  4.973E-05, res2:  1.712E+02, residm:  1.598E-05, diffor:  9.166E-04, }
etotal    :  -9.22695593E+01
entropy   :   0.00000000E+00
fermie    :  -1.82193243E-02
cartesian_stress_tensor: # hartree/bohr^3
- [  1.83348147E-04,  -9.50577059E-09,  -2.53697112E-09, ]
- [ -9.50577059E-09,   1.83288827E-04,  -2.81272589E-09, ]
- [ -2.53697112E-09,  -2.81272589E-09,   6.99372716E-04, ]
pressure_GPa:  -1.0454E+01
xred      :
- [  3.3332E-01,   6.6667E-01,   2.1106E-05, Mo]
- [  6.6668E-01,   3.3334E-01,  -1.0178E-01,  S]
- [  6.6667E-01,   3.3332E-01,   1.0176E-01,  S]
cartesian_forces: # hartree/bohr
- [  5.95459674E-06,  -9.18619084E-06,  -3.28876777E-05, ]
- [ -1.60984539E-06,  -8.50575176E-07,   8.22089991E-02, ]
- [ -4.34475134E-06,   1.00367660E-05,  -8.21761114E-02, ]
force_length_stats: {min:   3.46618330E-05, max:   8.22089991E-02, mean:   5.48065910E-02, }
...

 Integrated electronic density in atomic spheres:
 ------------------------------------------------
 Atom  Sphere_radius  Integrated_density
    1        2.00000         10.35647894
    2        2.00000          3.73357139
    3        2.00000          3.73379483
 
---OUTPUT-----------------------------------------------------------------------
 
 Cartesian coordinates (xcart) [bohr]
  2.97629159102668E+00  1.71848581638762E+00  7.97685250544621E-04
  2.97636353725396E+00 -1.71841056271107E+00 -3.84688077537529E+00
  2.97630084960402E+00 -1.71845363280576E+00  3.84608309012474E+00
 Reduced coordinates (xred)
  3.33318365648675E-01  6.66672539804907E-01  2.11058427108309E-05
  6.66677327346182E-01  3.33337750998649E-01 -1.01784081524581E-01
  6.66670973671810E-01  3.33323042529778E-01  1.01762975681871E-01
 Cartesian forces (fcart) [Ha/bohr]; max,rms= 8.22090E-02 3.87459E-02 (free atoms)
  5.95459673952001E-06 -9.18619083537749E-06 -3.28876777011147E-05
 -1.60984539453974E-06 -8.50575176328844E-07  8.22089990833351E-02
 -4.34475134498026E-06  1.00367660117063E-05 -8.21761114056340E-02
 Gradient of E wrt nuclear positions in reduced coordinates (gred)
 -6.50788325386124E-05  2.96332777697926E-05  1.24297408003434E-03
  4.06582907866099E-07  9.17624286483107E-06 -3.10704987852300E+00
  6.46722496307463E-05 -3.88095206346237E-05  3.10580690444297E+00
 Total energy (etotal) [Ha]= -9.22695592682464E+01
 
 Difference of energy with previous step (new-old):
           Absolute (Ha)= 6.52967E-02
           Relative     = 7.07423E-04
 
--- Iteration: ( 4/10) Internal Cycle: (1/1)
--------------------------------------------------------------------------------
 
---SELF-CONSISTENT-FIELD CONVERGENCE--------------------------------------------

--- !BeginCycle
iteration_state: {dtset: 21, itime: 4, icycle: 1, }
solver: {iscf: 7, nstep: 10, nline: 4, wfoptalg: 0, }
tolerances: {toldff: 5.00E-05, }
...
 
     iter   Etot(hartree)      deltaE(h)  residm     vres2    diffor    maxfor
 ETOT  1  -89.199048743663    -8.920E+01 4.025E-02 5.177E+04 5.756E-01 6.578E-01
 ETOT  2  -90.903206861549    -1.704E+00 2.827E-02 5.226E+03 1.169E+00 5.115E-01
 ETOT  3  -91.906439959071    -1.003E+00 2.621E-02 4.441E+03 1.736E-01 3.401E-01
 ETOT  4  -91.960240650269    -5.380E-02 2.121E-02 4.038E+03 1.984E-01 1.475E-01
 ETOT  5  -92.008752115626    -4.851E-02 2.020E-03 1.815E+03 1.646E-01 3.062E-01
 ETOT  6  -91.990812511140     1.794E-02 3.450E-03 2.454E+03 1.006E-01 2.127E-01
 ETOT  7  -92.012498411335    -2.169E-02 2.791E-04 1.153E+03 1.185E-01 3.240E-01
 ETOT  8  -92.013779830858    -1.281E-03 2.925E-04 1.044E+03 2.387E-03 3.228E-01
 ETOT  9  -92.014199269320    -4.194E-04 5.503E-05 9.777E+02 1.722E-03 3.211E-01
 ETOT 10  -92.014483286442    -2.840E-04 2.950E-05 8.690E+02 1.276E-04 3.210E-01
 
 Cartesian components of stress tensor (hartree/bohr^3)
  sigma(1 1)= -9.19575046E-04  sigma(3 2)=  3.40403261E-08
  sigma(2 2)= -9.20202768E-04  sigma(3 1)=  3.65315722E-08
  sigma(3 3)= -1.05666830E-03  sigma(2 1)=  9.82848845E-08
 
 
 scprqt:  WARNING -
  nstep=   10 was not enough SCF cycles to converge;
  maximum force difference=  1.276E-04 exceeds toldff=  5.000E-05
 

--- !ResultsGS
iteration_state: {dtset: 21, itime: 4, icycle: 1, }
comment   : Summary of ground state results
lattice_vectors:
- [  2.9763187,  -5.1551351,   0.0000000, ]
- [  2.9763187,   5.1551351,   0.0000000, ]
- [  0.0000000,   0.0000000,  37.7945227, ]
lattice_lengths: [   5.95264,    5.95264,   37.79452, ]
lattice_angles: [ 90.000,  90.000, 120.000, ] # degrees, (23, 13, 12)
lattice_volume:   1.1597873E+03
convergence: {deltae: -2.840E-04, res2:  8.690E+02, residm:  2.950E-05, diffor:  1.276E-04, }
etotal    :  -9.20144833E+01
entropy   :   0.00000000E+00
fermie    :  -5.56835917E-02
cartesian_stress_tensor: # hartree/bohr^3
- [ -9.19575046E-04,   9.82848845E-08,   3.65315722E-08, ]
- [  9.82848845E-08,  -9.20202768E-04,   3.40403261E-08, ]
- [  3.65315722E-08,   3.40403261E-08,  -1.05666830E-03, ]
pressure_GPa:   2.8405E+01
xred      :
- [  3.3334E-01,   6.6664E-01,  -5.5929E-05, Mo]
- [  6.6665E-01,   3.3332E-01,  -4.9987E-02,  S]
- [  6.6668E-01,   3.3337E-01,   5.0043E-02,  S]
cartesian_forces: # hartree/bohr
- [  5.18598568E-05,   1.27766160E-04,   1.64593154E-04, ]
- [ -1.37251137E-05,  -5.21631221E-05,  -3.21018314E-01, ]
- [ -3.81347431E-05,  -7.56030377E-05,   3.20853720E-01, ]
force_length_stats: {min:   2.14719684E-04, max:   3.21018318E-01, mean:   2.14028923E-01, }
...

 Integrated electronic density in atomic spheres:
 ------------------------------------------------
 Atom  Sphere_radius  Integrated_density
    1        2.00000         11.16787468
    2        2.00000          4.49817046
    3        2.00000          4.49493168
 
---OUTPUT-----------------------------------------------------------------------
 
 Cartesian coordinates (xcart) [bohr]
  2.97626205089353E+00  1.71820498870541E+00 -2.11381997344745E-03
  2.97621386612122E+00 -1.71834501555749E+00 -1.88924945334192E+00
  2.97648006086991E+00 -1.71823835227713E+00  1.89136327331537E+00
 Reduced coordinates (xred)
  3.33340640784496E-01  6.66640339611814E-01 -5.59292676505355E-05
  6.66645826216605E-01  3.33318964793479E-01 -4.99873876024829E-02
  6.66680199665566E-01  3.33374028928041E-01  5.00433168701337E-02
 Cartesian forces (fcart) [Ha/bohr]; max,rms= 3.21018E-01 1.51291E-01 (free atoms)
  5.18598568284422E-05  1.27766159794616E-04  1.64593153800989E-04
 -1.37251137107507E-05 -5.21631221173980E-05 -3.21018313626978E-01
 -3.81347431176915E-05 -7.56030376772175E-05  3.20853720473177E-01
 Gradient of E wrt nuclear positions in reduced coordinates (gred)
  5.04300360179449E-04 -8.13003279273156E-04 -6.22071968063590E-03
 -2.28057631664988E-04  3.09758255741490E-04  1.21327339279156E+01
 -2.76242728514461E-04  5.03245023531666E-04 -1.21265132082350E+01
 Total energy (etotal) [Ha]= -9.20144832864420E+01
 
 Difference of energy with previous step (new-old):
           Absolute (Ha)= 2.55076E-01
           Relative     = 2.76829E-03
 
--- Iteration: ( 5/10) Internal Cycle: (1/1)
--------------------------------------------------------------------------------
 
---SELF-CONSISTENT-FIELD CONVERGENCE--------------------------------------------

--- !BeginCycle
iteration_state: {dtset: 21, itime: 5, icycle: 1, }
solver: {iscf: 7, nstep: 10, nline: 4, wfoptalg: 0, }
tolerances: {toldff: 5.00E-05, }
...
 
     iter   Etot(hartree)      deltaE(h)  residm     vres2    diffor    maxfor
 ETOT  1  -88.787691720132    -8.879E+01 1.606E-02 5.079E+04 1.261E-01 4.469E-01
 ETOT  2  -84.781580717854     4.006E+00 4.607E-02 4.762E+05 2.323E-01 2.398E-01
 ETOT  3  -92.011891750510    -7.230E+00 5.924E-02 2.311E+04 2.800E-01 6.544E-02
 ETOT  4  -92.192796132413    -1.809E-01 3.852E-02 8.704E+03 1.082E-01 4.276E-02
 ETOT  5  -92.307497438978    -1.147E-01 6.891E-02 1.103E+03 1.274E-01 8.462E-02
 ETOT  6  -92.318549766727    -1.105E-02 3.442E-03 1.129E+03 9.520E-03 7.834E-02
 ETOT  7  -92.321739606975    -3.190E-03 1.477E-02 1.107E+03 7.790E-04 7.756E-02
 ETOT  8  -92.328432025478    -6.692E-03 2.419E-03 1.294E+03 1.753E-02 6.003E-02
 ETOT  9  -92.328881830195    -4.498E-04 1.836E-03 1.220E+03 8.774E-04 6.031E-02
 ETOT 10  -92.326641977808     2.240E-03 1.119E-03 1.429E+03 1.208E-02 4.896E-02
 
 Cartesian components of stress tensor (hartree/bohr^3)
  sigma(1 1)=  1.88455261E-04  sigma(3 2)= -2.53731785E-08
  sigma(2 2)=  1.88421316E-04  sigma(3 1)=  8.29547660E-08
  sigma(3 3)=  6.72898032E-04  sigma(2 1)= -1.30008384E-07
 
 
 scprqt:  WARNING -
  nstep=   10 was not enough SCF cycles to converge;
  maximum force difference=  1.208E-02 exceeds toldff=  5.000E-05
 

--- !ResultsGS
iteration_state: {dtset: 21, itime: 5, icycle: 1, }
comment   : Summary of ground state results
lattice_vectors:
- [  2.9763187,  -5.1551351,   0.0000000, ]
- [  2.9763187,   5.1551351,   0.0000000, ]
- [  0.0000000,   0.0000000,  37.7945227, ]
lattice_lengths: [   5.95264,    5.95264,   37.79452, ]
lattice_angles: [ 90.000,  90.000, 120.000, ] # degrees, (23, 13, 12)
lattice_volume:   1.1597873E+03
convergence: {deltae:  2.240E-03, res2:  1.429E+03, residm:  1.119E-03, diffor:  1.208E-02, }
etotal    :  -9.23266420E+01
entropy   :   0.00000000E+00
fermie    :   3.47229153E-02
cartesian_stress_tensor: # hartree/bohr^3
- [  1.88455261E-04,  -1.30008384E-07,   8.29547660E-08, ]
- [ -1.30008384E-07,   1.88421316E-04,  -2.53731785E-08, ]
- [  8.29547660E-08,  -2.53731785E-08,   6.72898032E-04, ]
pressure_GPa:  -1.0295E+01
xred      :
- [  3.3332E-01,   6.6667E-01,   5.5946E-06, Mo]
- [  6.6667E-01,   3.3333E-01,  -9.1224E-02,  S]
- [  6.6667E-01,   3.3333E-01,   9.1218E-02,  S]
cartesian_forces: # hartree/bohr
- [ -7.18801323E-06,  -4.60876650E-05,  -7.20466707E-04, ]
- [ -4.27157560E-06,   3.26805362E-05,   4.89554996E-02, ]
- [  1.14595888E-05,   1.34071288E-05,  -4.82350329E-02, ]
force_length_stats: {min:   7.21975080E-04, max:   4.89555107E-02, mean:   3.26375073E-02, }
...

 Integrated electronic density in atomic spheres:
 ------------------------------------------------
 Atom  Sphere_radius  Integrated_density
    1        2.00000         10.34407967
    2        2.00000          3.83031075
    3        2.00000          3.82805983
 
---OUTPUT-----------------------------------------------------------------------
 
 Cartesian coordinates (xcart) [bohr]
  2.97630088210731E+00  1.71844729622158E+00  2.11445697208675E-04
  2.97632894141627E+00 -1.71840851115253E+00 -3.44774951232952E+00
  2.97632615436108E+00 -1.71841716419826E+00  3.44753806663231E+00
 Reduced coordinates (xred)
  3.33323662579627E-01  6.66670364542597E-01  5.59461219086264E-06
  6.66671316513732E-01  3.33332138130264E-01 -9.12235231426035E-02
  6.66671687573308E-01  3.33330830660472E-01  9.12179285304126E-02
 Cartesian forces (fcart) [Ha/bohr]; max,rms= 4.89555E-02 2.29099E-02 (free atoms)
 -7.18801322563835E-06 -4.60876650275008E-05 -7.20466707139672E-04
 -4.27157559813927E-06  3.26805362055546E-05  4.89554996382129E-02
  1.14595888237776E-05  1.34071288219462E-05 -4.82350329310733E-02
 Gradient of E wrt nuclear positions in reduced coordinates (gred)
 -2.16194323496693E-04  2.58981959270145E-04  2.72296952871181E-02
  1.81186150659253E-04 -1.55759010344592E-04 -1.85024974029609E+00
  3.50081728374406E-05 -1.03222948925554E-04  1.82302004500897E+00
 Total energy (etotal) [Ha]= -9.23266419778077E+01
 
 Difference of energy with previous step (new-old):
           Absolute (Ha)=-3.12159E-01
           Relative     =-3.38675E-03
 
--- Iteration: ( 6/10) Internal Cycle: (1/1)
--------------------------------------------------------------------------------
 
---SELF-CONSISTENT-FIELD CONVERGENCE--------------------------------------------

--- !BeginCycle
iteration_state: {dtset: 21, itime: 6, icycle: 1, }
solver: {iscf: 7, nstep: 10, nline: 4, wfoptalg: 0, }
tolerances: {toldff: 5.00E-05, }
...
 
     iter   Etot(hartree)      deltaE(h)  residm     vres2    diffor    maxfor
 ETOT  1  -91.707454487651    -9.171E+01 2.507E-02 1.529E+04 2.904E-01 3.387E-01
 ETOT  2  -91.313393117165     3.941E-01 2.595E-03 1.156E+04 5.157E-01 1.771E-01
 ETOT  3  -92.329925644975    -1.017E+00 2.731E-02 1.004E+03 2.563E-01 8.025E-02
 ETOT  4  -92.349913266259    -1.999E-02 4.390E-03 4.453E+02 2.451E-02 6.001E-02
 ETOT  5  -92.352176109715    -2.263E-03 2.501E-04 2.877E+02 7.687E-03 5.233E-02
 ETOT  6  -92.352381562277    -2.055E-04 8.155E-05 2.633E+02 1.244E-03 5.121E-02
 ETOT  7  -92.352532223965    -1.507E-04 1.143E-04 2.411E+02 8.219E-04 5.039E-02
 ETOT  8  -92.352776693287    -2.445E-04 3.233E-05 2.037E+02 1.474E-03 4.891E-02
 ETOT  9  -92.353030120226    -2.534E-04 5.321E-05 1.608E+02 1.927E-03 4.699E-02
 ETOT 10  -92.353104929968    -7.481E-05 1.333E-05 1.462E+02 7.145E-04 4.627E-02
 
 Cartesian components of stress tensor (hartree/bohr^3)
  sigma(1 1)=  1.20474319E-04  sigma(3 2)= -4.95443089E-09
  sigma(2 2)=  1.20444976E-04  sigma(3 1)=  6.34583970E-09
  sigma(3 3)=  2.71911146E-04  sigma(2 1)=  1.13174874E-08
 
 
 scprqt:  WARNING -
  nstep=   10 was not enough SCF cycles to converge;
  maximum force difference=  7.145E-04 exceeds toldff=  5.000E-05
 

--- !ResultsGS
iteration_state: {dtset: 21, itime: 6, icycle: 1, }
comment   : Summary of ground state results
lattice_vectors:
- [  2.9763187,  -5.1551351,   0.0000000, ]
- [  2.9763187,   5.1551351,   0.0000000, ]
- [  0.0000000,   0.0000000,  37.7945227, ]
lattice_lengths: [   5.95264,    5.95264,   37.79452, ]
lattice_angles: [ 90.000,  90.000, 120.000, ] # degrees, (23, 13, 12)
lattice_volume:   1.1597873E+03
convergence: {deltae: -7.481E-05, res2:  1.462E+02, residm:  1.333E-05, diffor:  7.145E-04, }
etotal    :  -9.23531049E+01
entropy   :   0.00000000E+00
fermie    :  -8.58971442E-02
cartesian_stress_tensor: # hartree/bohr^3
- [  1.20474319E-04,   1.13174874E-08,   6.34583970E-09, ]
- [  1.13174874E-08,   1.20444976E-04,  -4.95443089E-09, ]
- [  6.34583970E-09,  -4.95443089E-09,   2.71911146E-04, ]
pressure_GPa:  -5.0293E+00
xred      :
- [  3.3333E-01,   6.6666E-01,  -1.8482E-05, Mo]
- [  6.6666E-01,   3.3333E-01,  -8.5793E-02,  S]
- [  6.6667E-01,   3.3334E-01,   8.5811E-02,  S]
cartesian_forces: # hartree/bohr
- [  8.68456193E-06,  -1.16369792E-06,   2.74965838E-04, ]
- [ -3.19289153E-06,  -3.08975107E-07,   4.59983938E-02, ]
- [ -5.49167039E-06,   1.47267303E-06,  -4.62733596E-02, ]
force_length_stats: {min:   2.75105413E-04, max:   4.62733599E-02, mean:   3.08489531E-02, }
...

 Integrated electronic density in atomic spheres:
 ------------------------------------------------
 Atom  Sphere_radius  Integrated_density
    1        2.00000         10.45097379
    2        2.00000          3.87764336
    3        2.00000          3.87862779
 
---OUTPUT-----------------------------------------------------------------------
 
 Cartesian coordinates (xcart) [bohr]
  2.97629636223744E+00  1.71839218796096E+00 -6.98516290384617E-04
  2.97630828707581E+00 -1.71837863078677E+00 -3.24249487293738E+00
  2.97635132857142E+00 -1.71839193630339E+00  3.24319338922776E+00
 Reduced coordinates (xred)
  3.33328248261194E-01  6.66664260250157E-01 -1.84819450350187E-05
  6.66664948617344E-01  3.33331566467138E-01 -8.57927192864194E-02
  6.66673469788129E-01  3.33337506616038E-01  8.58112012314545E-02
 Cartesian forces (fcart) [Ha/bohr]; max,rms= 4.62734E-02 2.17490E-02 (free atoms)
  8.68456192776622E-06 -1.16369792335818E-06  2.74965838226481E-04
 -3.19289153472717E-06 -3.08975106992437E-07  4.59983937552282E-02
 -5.49167039303906E-06  1.47267303035062E-06 -4.62733595934547E-02
 Gradient of E wrt nuclear positions in reduced coordinates (gred)
 -3.18470437674213E-05 -1.98490036594038E-05 -1.03922026029478E-02
  7.91025422127835E-06  1.10958710825480E-05 -1.73848733500037E+00
  2.39367895461430E-05  8.75313257685588E-06  1.74887953760332E+00
 Total energy (etotal) [Ha]= -9.23531049299676E+01
 
 Difference of energy with previous step (new-old):
           Absolute (Ha)=-2.64630E-02
           Relative     =-2.86582E-04
 
--- Iteration: ( 7/10) Internal Cycle: (1/1)
--------------------------------------------------------------------------------
 
---SELF-CONSISTENT-FIELD CONVERGENCE--------------------------------------------

--- !BeginCycle
iteration_state: {dtset: 21, itime: 7, icycle: 1, }
solver: {iscf: 7, nstep: 10, nline: 4, wfoptalg: 0, }
tolerances: {toldff: 5.00E-05, }
...
 
     iter   Etot(hartree)      deltaE(h)  residm     vres2    diffor    maxfor
 ETOT  1  -78.428684249969    -7.843E+01 3.780E-01 3.688E+04 1.694E+01 1.699E+01
 ETOT  2  -80.051661415670    -1.623E+00 4.648E-01 9.837E+03 4.042E+00 2.103E+01
 ETOT  3  -80.771874309824    -7.202E-01 4.345E-02 8.551E+03 2.230E+00 1.882E+01
 ETOT  4  -81.211448016410    -4.396E-01 1.859E-01 7.062E+03 6.734E-01 1.947E+01
 ETOT  5  -81.270061354298    -5.861E-02 3.076E-03 4.211E+03 1.913E-01 1.965E+01
 ETOT  6  -81.276355647956    -6.294E-03 2.012E-04 3.582E+03 4.272E-02 1.961E+01
 ETOT  7  -81.278882426714    -2.527E-03 9.408E-02 3.015E+03 1.144E-02 1.959E+01
 ETOT  8  -81.280396653475    -1.514E-03 1.752E-01 2.541E+03 1.536E-03 1.959E+01
 ETOT  9  -81.285420996369    -5.024E-03 1.579E-01 2.348E+03 5.079E-02 1.957E+01
 ETOT 10  -81.293460301986    -8.039E-03 9.169E-03 2.326E+03 3.281E-02 1.954E+01
 
 Cartesian components of stress tensor (hartree/bohr^3)
  sigma(1 1)= -2.15108324E-03  sigma(3 2)=  4.99727953E-06
  sigma(2 2)= -2.14484818E-03  sigma(3 1)=  9.15155892E-06
  sigma(3 3)= -2.03434453E-02  sigma(2 1)= -2.29105728E-06
 
 
 scprqt:  WARNING -
  nstep=   10 was not enough SCF cycles to converge;
  maximum force difference=  3.281E-02 exceeds toldff=  5.000E-05
 

--- !ResultsGS
iteration_state: {dtset: 21, itime: 7, icycle: 1, }
comment   : Summary of ground state results
lattice_vectors:
- [  2.9763187,  -5.1551351,   0.0000000, ]
- [  2.9763187,   5.1551351,   0.0000000, ]
- [  0.0000000,   0.0000000,  37.7945227, ]
lattice_lengths: [   5.95264,    5.95264,   37.79452, ]
lattice_angles: [ 90.000,  90.000, 120.000, ] # degrees, (23, 13, 12)
lattice_volume:   1.1597873E+03
convergence: {deltae: -8.039E-03, res2:  2.326E+03, residm:  9.169E-03, diffor:  3.281E-02, }
etotal    :  -8.12934603E+01
entropy   :   0.00000000E+00
fermie    :  -1.21811704E-01
cartesian_stress_tensor: # hartree/bohr^3
- [ -2.15108324E-03,  -2.29105728E-06,   9.15155892E-06, ]
- [ -2.29105728E-06,  -2.14484818E-03,   4.99727953E-06, ]
- [  9.15155892E-06,   4.99727953E-06,  -2.03434453E-02, ]
pressure_GPa:   2.4164E+02
xred      :
- [  3.3338E-01,   6.6668E-01,   3.0584E-05, Mo]
- [  6.6661E-01,   3.3326E-01,   1.5847E-02,  S]
- [  6.6667E-01,   3.3339E-01,  -1.5877E-02,  S]
cartesian_forces: # hartree/bohr
- [ -5.77506663E-04,  -1.15762534E-02,  -5.39298076E-03, ]
- [ -8.50846146E-03,   8.28859886E-04,   1.95428191E+01, ]
- [  9.08596812E-03,   1.07473935E-02,  -1.95374261E+01, ]
force_length_stats: {min:   1.27838726E-02, max:   1.95428209E+01, mean:   1.30310120E+01, }
...

 Integrated electronic density in atomic spheres:
 ------------------------------------------------
 Atom  Sphere_radius  Integrated_density
    1        2.00000         11.86203419
    2        2.00000          8.69369157
    3        2.00000          8.67249557
 
---OUTPUT-----------------------------------------------------------------------
 
 Cartesian coordinates (xcart) [bohr]
  2.97651730322728E+00  1.71819931747249E+00  1.15589067097293E-03
  2.97593800242505E+00 -1.71843660549004E+00  5.98915040502428E-01
  2.97650067223234E+00 -1.71814109111169E+00 -6.00070931173385E-01
 Reduced coordinates (xred)
  3.33384071386389E-01  6.66682670100370E-01  3.05835499350340E-05
  6.66608366480352E-01  3.33263738319767E-01  1.58466094657821E-02
  6.66674228799928E-01  3.33386924913194E-01 -1.58771930157167E-02
 Cartesian forces (fcart) [Ha/bohr]; max,rms= 1.95428E+01 9.21130E+00 (free atoms)
 -5.77506662872229E-04 -1.15762534083596E-02 -5.39298076155670E-03
 -8.50846145906410E-03  8.28859885750408E-04  1.95428190709425E+01
  9.08596812193633E-03  1.07473935226091E-02 -1.95374260901809E+01
 Gradient of E wrt nuclear positions in reduced coordinates (gred)
 -5.79583068481636E-02  6.13959945613111E-02  2.03825133585264E-01
  2.95967773235069E-02  2.10510078815009E-02 -7.38611518172319E+02
  2.83615295246567E-02 -8.24470024428120E-02  7.38407693038734E+02
 Total energy (etotal) [Ha]= -8.12934603019858E+01
 
 Difference of energy with previous step (new-old):
           Absolute (Ha)= 1.10596E+01
           Relative     = 1.27381E-01
 
--- Iteration: ( 8/10) Internal Cycle: (1/1)
[...]
 ETOT  1  -37.731374841276    -3.773E+01 5.244E-01 6.697E+06 2.885E+00 2.924E+00
 ETOT  2  -47.440099507353    -9.709E+00 9.978E-02 5.655E+06 2.641E+00 1.390E+00
 ETOT  3  -69.411417788684    -2.197E+01 9.114E-01 2.652E+06 8.190E-01 1.317E+00
 ETOT  4  -87.483136739682    -1.807E+01 1.503E+00 2.088E+05 1.374E+00 5.634E-02
 ETOT  5  -85.308660978163     2.174E+00 1.455E-01 4.618E+05 4.149E-01 4.037E-01
 ETOT  6  -76.965512817115     8.343E+00 4.397E-01 1.792E+06 5.576E-01 8.314E-01
 ETOT  7  -78.152116499935    -1.187E+00 6.301E-02 1.356E+06 7.437E-01 9.691E-01
 ETOT  8  -81.153897951956    -3.002E+00 3.342E-02 1.034E+06 4.565E-01 6.596E-01
 ETOT  9  -80.881029008368     2.729E-01 7.873E-03 1.057E+06 5.972E-02 6.963E-01
 ETOT 10  -82.582281305306    -1.701E+00 5.743E-03 9.027E+05 1.008E-01 6.117E-01
 
 Cartesian components of stress tensor (hartree/bohr^3)
  sigma(1 1)= -8.36564152E-03  sigma(3 2)= -3.12845494E-05
  sigma(2 2)= -8.26566579E-03  sigma(3 1)=  2.60686660E-05
  sigma(3 3)=  4.55984518E-03  sigma(2 1)= -2.44347942E-05
 
 
 scprqt:  WARNING -
  nstep=   10 was not enough SCF cycles to converge;
  maximum force difference=  1.008E-01 exceeds toldff=  5.000E-05
 

--- !ResultsGS
iteration_state: {dtset: 31, itime: 10, icycle: 1, }
comment   : Summary of ground state results
lattice_vectors:
- [  2.9763187,  -5.1551351,   0.0000000, ]
- [  2.9763187,   5.1551351,   0.0000000, ]
- [  0.0000000,   0.0000000,  37.7945227, ]
lattice_lengths: [   5.95264,    5.95264,   37.79452, ]
lattice_angles: [ 90.000,  90.000, 120.000, ] # degrees, (23, 13, 12)
lattice_volume:   1.1597873E+03
convergence: {deltae: -1.701E+00, res2:  9.027E+05, residm:  5.743E-03, diffor:  1.008E-01, }
etotal    :  -8.25822813E+01
entropy   :   0.00000000E+00
fermie    :  -1.20607064E-01
cartesian_stress_tensor: # hartree/bohr^3
- [ -8.36564152E-03,  -2.44347942E-05,   2.60686660E-05, ]
- [ -2.44347942E-05,  -8.26566579E-03,  -3.12845494E-05, ]
- [  2.60686660E-05,  -3.12845494E-05,   4.55984518E-03, ]
pressure_GPa:   1.1838E+02
xred      :
- [  3.3500E-01,   6.6388E-01,   4.0749E-03, Mo]
- [  6.6573E-01,   3.3494E-01,  -2.9061E-01,  S]
- [  6.6593E-01,   3.3451E-01,   2.8653E-01,  S]
cartesian_forces: # hartree/bohr
- [ -1.89599290E-04,  -6.87625732E-05,   1.57381307E-01, ]
- [  7.55117177E-04,   7.00803208E-04,   4.54343288E-01, ]
- [ -5.65517887E-04,  -6.32040635E-04,  -6.11724595E-01, ]
force_length_stats: {min:   1.57381436E-01, max:   6.11725183E-01, mean:   4.07817025E-01, }
...

 Integrated electronic density in atomic spheres:
 ------------------------------------------------
 Atom  Sphere_radius  Integrated_density
    1        2.00000         12.47300534
    2        2.00000          2.82786754
    3        2.00000          2.50094347
 
---OUTPUT-----------------------------------------------------------------------
 
 Cartesian coordinates (xcart) [bohr]
  2.97299466552430E+00  1.69544595052932E+00  1.54009353431305E-01
  2.97830836894949E+00 -1.70530480829135E+00 -1.09833045602671E+01
  2.97765294341090E+00 -1.70851952136714E+00  1.08292952068358E+01
 Reduced coordinates (xred)
  3.34999157996266E-01  6.63884028197456E-01  4.07491198727643E-03
  6.65732909125184E-01  3.34935604526197E-01 -2.90605722414797E-01
  6.65934599545218E-01  3.34513700609689E-01  2.86530810427520E-01
 Cartesian forces (fcart) [Ha/bohr]; max,rms= 6.11725E-01 2.59359E-01 (free atoms)
 -1.89599290138629E-04 -6.87625732307360E-05  1.57381306850408E-01
  7.55117176941561E-04  7.00803208035627E-04  4.54343288163316E-01
 -5.65517886802932E-04 -6.32040634804891E-04 -6.11724595013724E-01
 Gradient of E wrt nuclear positions in reduced coordinates (gred)
  2.09827547629711E-04  9.18788262427623E-04 -5.94815136765819E+00
  1.36526589845317E-03 -5.86020458582367E-03 -1.71716876988682E+01
 -1.57509344608288E-03  4.94141632339604E-03  2.31198390665264E+01
 Total energy (etotal) [Ha]= -8.25822813053065E+01
 
 Difference of energy with previous step (new-old):
           Absolute (Ha)= 8.56469E+00
           Relative     = 9.85982E-02
 
 fconv : WARNING -
  ntime=   10 was not enough Broyd/MD steps to converge gradients: 
  max grad (force/stress) = 6.1172E-01 > tolmxf= 5.0000E-04 ha/bohr (free atoms)
 
================================================================================
 
 ----iterations are completed or convergence reached----
 
 Mean square residual over all n,k,spin=   13.133E-05; max=  57.434E-04
 reduced coordinates (array xred) for    3 atoms
       0.334999157996      0.663884028197      0.004074911987
       0.665732909125      0.334935604526     -0.290605722415
       0.665934599545      0.334513700610      0.286530810428
 rms dE/dt=  9.8051E+00; max dE/dt=  2.2721E+01; dE/dt below (all hartree)
    1      -0.000896438162      0.005472785842     -6.347310476646
    2       0.000259000189     -0.001306207007    -17.570846807856
    3      -0.002681359156      0.009495413903     22.720679957539
 
 cartesian coordinates (angstrom) at end:
    1      1.57324101825511     0.89719135541632     0.08149823974553
    2      1.57605290900093    -0.90240843824672    -5.81211444829594
    3      1.57570607274398    -0.90410959113858     5.73061620855041
 
 cartesian forces (hartree/bohr) at end:
    1     -0.00018959929014    -0.00006876257323     0.15738130685041
    2      0.00075511717694     0.00070080320804     0.45434328816332
    3     -0.00056551788680    -0.00063204063480    -0.61172459501372
 frms,max,avg= 2.5935936E-01 6.1172460E-01  -5.792E-04 -5.490E-04  1.056E-02 h/b
 
 cartesian forces (eV/Angstrom) at end:
    1     -0.00974958667871    -0.00353591338593     8.09287150613656
    2      0.03882968319022     0.03603674684892    23.36326927489716
    3     -0.02908009651151    -0.03250083346299   -31.45614078103371
 frms,max,avg= 1.3336793E+01 3.1456141E+01  -2.978E-02 -2.823E-02  5.431E-01 e/A
 length scales=  5.952637318590  5.952637318590 37.794522657713 bohr
              =  3.150000000000  3.150000000000 20.000000000000 angstroms
 prteigrs : about to open file mos2_k_drafto_DS31_EIG
 Fermi (or HOMO) energy (hartree) =  -0.12061   Average Vxc (hartree)=  -0.19748
 Eigenvalues (hartree) for nkpt=  14  k points:
 kpt#   1, nband= 14, wtk=  0.03704, kpt=  0.0000  0.0000  0.0000 (reduced coord)
  -2.43663   -1.48032   -1.46761   -1.46443   -0.56969   -0.56533   -0.29341   -0.18677
  -0.17790   -0.17642   -0.17590   -0.16771   -0.12061   -0.08513
 prteigrs : prtvol=0 or 1, do not print more k-points.
 

--- !EnergyTerms
iteration_state     : {dtset: 31, itime: 10, icycle: 1, }
comment             : Components of total free energy in Hartree
kinetic             :  3.32692753700506E+01
hartree             :  1.34135283222326E+02
xc                  : -1.67454786235930E+01
Ewald energy        :  6.24754334339934E+00
psp_core            :  7.63117176066322E-01
local_psp           : -2.51826623684018E+02
non_local_psp       :  1.15746018904626E+01
total_energy        : -8.25822813053065E+01
total_energy_eV     : -2.24717815663320E+03
band_energy         : -1.83882785791207E+01
...

 rms coord change=  9.2714E-02   atom, delta coord (reduced):
     1        0.001665824663     -0.002782638469      0.004074911987
     2       -0.000933757541      0.001602271193     -0.198661487415
     3       -0.000732067121      0.001180367276      0.194586575428
 
 Cartesian components of stress tensor (hartree/bohr^3)
  sigma(1 1)= -8.36564152E-03  sigma(3 2)= -3.12845494E-05
  sigma(2 2)= -8.26566579E-03  sigma(3 1)=  2.60686660E-05
  sigma(3 3)=  4.55984518E-03  sigma(2 1)= -2.44347942E-05
 
-Cartesian components of stress tensor (GPa)         [Pressure=  1.1838E+02 GPa]
- sigma(1 1)= -2.46125629E+02  sigma(3 2)= -9.20423064E-01
- sigma(2 2)= -2.43184243E+02  sigma(3 1)=  7.66966504E-01
- sigma(3 3)=  1.34155254E+02  sigma(2 1)= -7.18896345E-01
 
== END DATASET(S) ==============================================================
================================================================================
  
 -outvars: echo values of variables after computation  --------
            acell      5.9526373186E+00  5.9526373186E+00  3.7794522658E+01 Bohr
              amu      9.59400000E+01  3.20660000E+01
      chksymbreak           0
             ecut      2.50000000E+01 Hartree
           etotal11   -9.2365236474E+01
           etotal21   -9.2348637846E+01
           etotal31   -8.2582281305E+01
            fcart11   -6.7801795469E-07  9.9350012717E-07  1.5770199652E-05
                       3.7193654008E-07  8.5886072911E-08  3.0408480499E-04
                       3.0608141461E-07 -1.0793862001E-06 -3.1985500464E-04
            fcart21    2.9747028542E-06 -2.5101026858E-05  1.2721749654E-04
                      -7.2444726428E-06  9.0052928345E-06  4.8456755195E-02
                       4.2697697885E-06  1.6095734024E-05 -4.8583972691E-02
            fcart31   -1.8959929014E-04 -6.8762573231E-05  1.5738130685E-01
                       7.5511717694E-04  7.0080320804E-04  4.5434328816E-01
                      -5.6551788680E-04 -6.3204063480E-04 -6.1172459501E-01
-          fftalg         512
           getwfk          -1
           ionmov           2
           istwfk        2    0    0    0    0    0    0    0    0    0
                         0    0    0    0
              ixc          11
           jdtset       11   21   31
              kpt      0.00000000E+00  0.00000000E+00  0.00000000E+00
                       1.11111111E-01  1.11111111E-01  0.00000000E+00
                       3.33333333E-01  0.00000000E+00  0.00000000E+00
                       0.00000000E+00  3.33333333E-01  0.00000000E+00
                       2.22222222E-01  2.22222222E-01  0.00000000E+00
                       4.44444444E-01  1.11111111E-01  0.00000000E+00
                       1.11111111E-01  4.44444444E-01  0.00000000E+00
                       3.33333333E-01  3.33333333E-01  0.00000000E+00
                      -4.44444444E-01  2.22222222E-01  0.00000000E+00
                      -2.22222222E-01  1.11111111E-01  0.00000000E+00
                       2.22222222E-01 -4.44444444E-01  0.00000000E+00
                       4.44444444E-01  4.44444444E-01  0.00000000E+00
                      -3.33333333E-01  3.33333333E-01  0.00000000E+00
                      -1.11111111E-01  2.22222222E-01  0.00000000E+00
         kptrlatt        3   -3    0      3    6    0      0    0    1
          kptrlen      3.09308108E+01
P           mkmem          14
            natom           3
            nband          14
           ndtset           3
            ngfft          30      30     180
             nkpt          14
            nstep          10
             nsym           1
            ntime          10
           ntypat           2
              occ      2.000000  2.000000  2.000000  2.000000  2.000000  2.000000
                       2.000000  2.000000  2.000000  2.000000  2.000000  2.000000
                       2.000000  0.000000
        optforces           1
            rprim      5.0000000000E-01 -8.6602540378E-01  0.0000000000E+00
                       5.0000000000E-01  8.6602540378E-01  0.0000000000E+00
                       0.0000000000E+00  0.0000000000E+00  1.0000000000E+00
          spgroup           1
           strten11    5.2073917181E-05  5.2071683999E-05  8.3363336140E-05
                       4.1286099318E-09  1.7225704188E-10 -4.1094250789E-12
           strten21    1.3249175942E-04  1.3242747993E-04  3.5653044993E-04
                      -1.9820041927E-08 -3.1758175145E-08  2.5179942818E-09
           strten31   -8.3656415165E-03 -8.2656657927E-03  4.5598451783E-03
                      -3.1284549352E-05  2.6068665993E-05 -2.4434794218E-05
           toldff      5.00000000E-05
           tolmxf      5.00000000E-04
            typat      1  2  2
              wtk        0.03704    0.07407    0.07407    0.07407    0.07407    0.07407
                         0.07407    0.07407    0.07407    0.07407    0.07407    0.07407
                         0.07407    0.07407
           xangst11    1.5750011936E+00  9.0932490216E-01 -2.6540549206E-05
                       1.5749992062E+00 -9.0933023578E-01 -1.5766032400E+00
                       1.5749996002E+00 -9.0932134035E-01  1.5766297805E+00
           xangst21    1.5749991962E+00  9.0938755543E-01 -1.8899434465E-04
                       1.5750496851E+00 -9.0932595161E-01 -1.7437018522E+00
                       1.5749511187E+00 -9.0938827780E-01  1.7438908465E+00
           xangst31    1.5732410183E+00  8.9719135542E-01  8.1498239746E-02
                       1.5760529090E+00 -9.0240843825E-01 -5.8121144483E+00
                       1.5757060727E+00 -9.0410959114E-01  5.7306162086E+00
            xcart11    2.9763209149E+00  1.7183750309E+00 -5.0154369416E-05
                       2.9763171593E+00 -1.7183851100E+00 -2.9793483438E+00
                       2.9763179037E+00 -1.7183683000E+00  2.9793984982E+00
            xcart21    2.9763171403E+00  1.7184934284E+00 -3.5714755205E-04
                       2.9764125506E+00 -1.7183770141E+00 -3.2951189580E+00
                       2.9762262870E+00 -1.7184947935E+00  3.2954761055E+00
            xcart31    2.9729946655E+00  1.6954459505E+00  1.5400935343E-01
                       2.9783083689E+00 -1.7053048083E+00 -1.0983304560E+01
                       2.9776529434E+00 -1.7085195214E+00  1.0829295207E+01
             xred11    3.3333403700E-01  6.6666672084E-01 -1.3270274603E-06
                       6.6666706750E-01  3.3333242851E-01 -7.8830161999E-02
                       6.6666556216E-01  3.3333418398E-01  7.8831489027E-02
             xred21    3.3332191944E-01  6.6667757019E-01 -9.4497172325E-06
                       6.6668230732E-01  3.3334923878E-01 -8.7185092608E-02
                       6.6666243990E-01  3.3330652436E-01  8.7194542325E-02
             xred31    3.3499915800E-01  6.6388402820E-01  4.0749119873E-03
                       6.6573290913E-01  3.3493560453E-01 -2.9060572241E-01
                       6.6593459955E-01  3.3451370061E-01  2.8653081043E-01
            znucl       42.00000   16.00000
 
================================================================================


- Timing analysis has been suppressed with timopt=0



================================================================================

 Suggested references for the acknowledgment of ABINIT usage.

 The users of ABINIT have little formal obligations with respect to the ABINIT group
 (those specified in the GNU General Public License, http://www.gnu.org/copyleft/gpl.txt).
 However, it is common practice in the scientific literature,
 to acknowledge the efforts of people that have made the research possible.
 In this spirit, please find below suggested citations of work written by ABINIT developers,
 corresponding to implementations inside of ABINIT that you have used in the present run.
 Note also that it will be of great value to readers of publications presenting these results,
 to read papers enabling them to understand the theoretical formalism and details
 of the ABINIT implementation.
 For information on why they are suggested, see also https://docs.abinit.org/theory/acknowledgments.
-
- [1] The Abinit project: Impact, environment and recent developments.
- Computer Phys. Comm. 248, 107042 (2020).
- X.Gonze, B. Amadon, G. Antonius, F.Arnardi, L.Baguet, J.-M.Beuken,
- J.Bieder, F.Bottin, J.Bouchet, E.Bousquet, N.Brouwer, F.Bruneval,
- G.Brunin, T.Cavignac, J.-B. Charraud, Wei Chen, M.Cote, S.Cottenier,
- J.Denier, G.Geneste, Ph.Ghosez, M.Giantomassi, Y.Gillet, O.Gingras,
- D.R.Hamann, G.Hautier, Xu He, N.Helbig, N.Holzwarth, Y.Jia, F.Jollet,
- W.Lafargue-Dit-Hauret, K.Lejaeghere, M.A.L.Marques, A.Martin, C.Martins,
- H.P.C. Miranda, F.Naccarato, K. Persson, G.Petretto, V.Planes, Y.Pouillon,
- S.Prokhorenko, F.Ricci, G.-M.Rignanese, A.H.Romero, M.M.Schmitt, M.Torrent,
- M.J.van Setten, B.Van Troeye, M.J.Verstraete, G.Zerah and J.W.Zwanzig
- Comment: the fifth generic paper describing the ABINIT project.
- Note that a version of this paper, that is not formatted for Computer Phys. Comm. 
- is available at https://www.abinit.org/sites/default/files/ABINIT20.pdf .
- The licence allows the authors to put it on the Web.
- DOI and bibtex: see https://docs.abinit.org/theory/bibliography/#gonze2020
-
- [2] Optimized norm-conserving Vanderbilt pseudopotentials.
- D.R. Hamann, Phys. Rev. B 88, 085117 (2013).
- Comment: Some pseudopotential generated using the ONCVPSP code were used.
- DOI and bibtex: see https://docs.abinit.org/theory/bibliography/#hamann2013
-
- [3] ABINIT: Overview, and focus on selected capabilities
- J. Chem. Phys. 152, 124102 (2020).
- A. Romero, D.C. Allan, B. Amadon, G. Antonius, T. Applencourt, L.Baguet,
- J.Bieder, F.Bottin, J.Bouchet, E.Bousquet, F.Bruneval,
- G.Brunin, D.Caliste, M.Cote,
- J.Denier, C. Dreyer, Ph.Ghosez, M.Giantomassi, Y.Gillet, O.Gingras,
- D.R.Hamann, G.Hautier, F.Jollet, G. Jomard,
- A.Martin, 
- H.P.C. Miranda, F.Naccarato, G.Petretto, N.A. Pike, V.Planes,
- S.Prokhorenko, T. Rangel, F.Ricci, G.-M.Rignanese, M.Royo, M.Stengel, M.Torrent,
- M.J.van Setten, B.Van Troeye, M.J.Verstraete, J.Wiktor, J.W.Zwanziger, and X.Gonze.
- Comment: a global overview of ABINIT, with focus on selected capabilities .
- Note that a version of this paper, that is not formatted for J. Chem. Phys 
- is available at https://www.abinit.org/sites/default/files/ABINIT20_JPC.pdf .
- The licence allows the authors to put it on the Web.
- DOI and bibtex: see https://docs.abinit.org/theory/bibliography/#romero2020
-
- [4] Recent developments in the ABINIT software package.
- Computer Phys. Comm. 205, 106 (2016).
- X.Gonze, F.Jollet, F.Abreu Araujo, D.Adams, B.Amadon, T.Applencourt,
- C.Audouze, J.-M.Beuken, J.Bieder, A.Bokhanchuk, E.Bousquet, F.Bruneval
- D.Caliste, M.Cote, F.Dahm, F.Da Pieve, M.Delaveau, M.Di Gennaro,
- B.Dorado, C.Espejo, G.Geneste, L.Genovese, A.Gerossier, M.Giantomassi,
- Y.Gillet, D.R.Hamann, L.He, G.Jomard, J.Laflamme Janssen, S.Le Roux,
- A.Levitt, A.Lherbier, F.Liu, I.Lukacevic, A.Martin, C.Martins,
- M.J.T.Oliveira, S.Ponce, Y.Pouillon, T.Rangel, G.-M.Rignanese,
- A.H.Romero, B.Rousseau, O.Rubel, A.A.Shukri, M.Stankovski, M.Torrent,
- M.J.Van Setten, B.Van Troeye, M.J.Verstraete, D.Waroquier, J.Wiktor,
- B.Xu, A.Zhou, J.W.Zwanziger.
- Comment: the fourth generic paper describing the ABINIT project.
- Note that a version of this paper, that is not formatted for Computer Phys. Comm. 
- is available at https://www.abinit.org/sites/default/files/ABINIT16.pdf .
- The licence allows the authors to put it on the Web.
- DOI and bibtex: see https://docs.abinit.org/theory/bibliography/#gonze2016
-
- And optionally:
-
- [5] ABINIT: First-principles approach of materials and nanosystem properties.
- Computer Phys. Comm. 180, 2582-2615 (2009).
- X. Gonze, B. Amadon, P.-M. Anglade, J.-M. Beuken, F. Bottin, P. Boulanger, F. Bruneval,
- D. Caliste, R. Caracas, M. Cote, T. Deutsch, L. Genovese, Ph. Ghosez, M. Giantomassi
- S. Goedecker, D.R. Hamann, P. Hermet, F. Jollet, G. Jomard, S. Leroux, M. Mancini, S. Mazevet,
- M.J.T. Oliveira, G. Onida, Y. Pouillon, T. Rangel, G.-M. Rignanese, D. Sangalli, R. Shaltaf,
- M. Torrent, M.J. Verstraete, G. Zerah, J.W. Zwanziger
- Comment: the third generic paper describing the ABINIT project.
- Note that a version of this paper, that is not formatted for Computer Phys. Comm. 
- is available at https://www.abinit.org/sites/default/files/ABINIT_CPC_v10.pdf .
- The licence allows the authors to put it on the Web.
- DOI and bibtex: see https://docs.abinit.org/theory/bibliography/#gonze2009
-
- Proc.   0 individual time (sec): cpu=        913.9  wall=        927.8
 
================================================================================
 
 Calculation completed.
.Delivered  29 WARNINGs and  11 COMMENTs to log file.
+Overall time at end (sec) : cpu=        913.9  wall=        927.8
