
.Version 9.10.3 of ABINIT 
.(MPI version, prepared for a x86_64_linux_intel2021.6 computer) 

.Copyright (C) 1998-2022 ABINIT group . 
 ABINIT comes with ABSOLUTELY NO WARRANTY.
 It is free software, and you are welcome to redistribute it
 under certain conditions (GNU General Public License,
 see ~abinit/COPYING or http://www.gnu.org/copyleft/gpl.txt).

 ABINIT is a project of the Universite Catholique de Louvain,
 Corning Inc. and other collaborators, see ~abinit/doc/developers/contributors.txt .
 Please read https://docs.abinit.org/theory/acknowledgments for suggested
 acknowledgments of the ABINIT effort.
 For more information, see https://www.abinit.org .

.Starting date : Wed  7 May 2025.
- ( at 10h34 )
  
- input  file    -> mos2.abi
- output file    -> mos2.abo
- root for input  files -> mos2i
- root for output files -> mos2o
 
 
 DATASET    1 : space group P1 (#  1); Bravais aP (primitive triclinic)
================================================================================
 Values of the parameters that define the memory need for DATASET  1.
     intxc =       0    ionmov =       2      iscf =       7    lmnmax =       6
     lnmax =       6     mgfft =     192  mpssoang =       3    mqgrid =    9319
     natom =       3  nloc_mem =       1    nspden =       1   nspinor =       1
    nsppol =       1      nsym =       1    n1xccc =    2501    ntypat =       2
    occopt =       1   xclevel =       2
-    mband =          14        mffmem =           1         mkmem =          10
       mpw =        9128          nfft =      172800          nkpt =          10
================================================================================
P This job should need less than                      75.052 Mbytes of memory.
  Rough estimation (10% accuracy) of disk space for files :
_ WF disk file :     19.502 Mbytes ; DEN or POT disk file :      1.320 Mbytes.
================================================================================
 
 
 DATASET    2 : space group P1 (#  1); Bravais aP (primitive triclinic)
================================================================================
 Values of the parameters that define the memory need for DATASET  2.
     intxc =       0    ionmov =       2      iscf =      -2    lmnmax =       6
     lnmax =       6     mgfft =     192  mpssoang =       3    mqgrid =    9319
     natom =       3  nloc_mem =       1    nspden =       1   nspinor =       1
    nsppol =       1      nsym =       1    n1xccc =    2501    ntypat =       2
    occopt =       1   xclevel =       2
-    mband =           8        mffmem =           1         mkmem =          68
       mpw =        9191          nfft =      172800          nkpt =          68
================================================================================
P This job should need less than                     116.945 Mbytes of memory.
  Rough estimation (10% accuracy) of disk space for files :
_ WF disk file :     76.294 Mbytes ; DEN or POT disk file :      1.320 Mbytes.
================================================================================
 
--------------------------------------------------------------------------------
------------- Echo of variables that govern the present computation ------------
--------------------------------------------------------------------------------
-
- outvars: echo of selected default values                                      
-   iomode0 =  0 , fftalg0 =512 , wfoptalg0 =  0
-
- outvars: echo of global parameters not present in the input file              
-  max_nthreads =    0
-
 -outvars: echo values of preprocessed input variables --------
            acell      5.9526373186E+00  5.9526373186E+00  3.7794522658E+01 Bohr
              amu      9.59400000E+01  3.20660000E+01
      chksymbreak           0
             ecut      3.00000000E+01 Hartree
           enunit1          0
           enunit2          1
-          fftalg         512
           getden1          0
           getden2         -1
           ionmov           2
             iscf1          7
             iscf2         -2
           istwfk1       4    0    5    0    0    0    0    8    0    9
           istwfk2       2    0    0    0    0    0    0    0    0    0
                         0    0    0    0    0    0    0    3    0    0
                         0    0    0    0    0    0    0    0    0    0
                         0    0    0    0    0    0    0    0    0    0
                         0    0    0    0    0    0    0    0    0    0
                       outvar_i_n : Printing only first  50 k-points.
              ixc          11
           jdtset        1    2
              kpt1     0.00000000E+00  0.00000000E+00  5.00000000E-01
                       2.50000000E-01  0.00000000E+00  5.00000000E-01
                       5.00000000E-01  0.00000000E+00  5.00000000E-01
                       0.00000000E+00  2.50000000E-01  5.00000000E-01
                       2.50000000E-01  2.50000000E-01  5.00000000E-01
                       5.00000000E-01  2.50000000E-01  5.00000000E-01
                      -2.50000000E-01  2.50000000E-01  5.00000000E-01
                       0.00000000E+00  5.00000000E-01  5.00000000E-01
                       2.50000000E-01  5.00000000E-01  5.00000000E-01
                       5.00000000E-01  5.00000000E-01  5.00000000E-01
              kpt2     0.00000000E+00  0.00000000E+00  0.00000000E+00
                       2.94117647E-02  0.00000000E+00  0.00000000E+00
                       5.88235294E-02  0.00000000E+00  0.00000000E+00
                       8.82352941E-02  0.00000000E+00  0.00000000E+00
                       1.17647059E-01  0.00000000E+00  0.00000000E+00
                       1.47058824E-01  0.00000000E+00  0.00000000E+00
                       1.76470588E-01  0.00000000E+00  0.00000000E+00
                       2.05882353E-01  0.00000000E+00  0.00000000E+00
                       2.35294118E-01  0.00000000E+00  0.00000000E+00
                       2.64705882E-01  0.00000000E+00  0.00000000E+00
                       2.94117647E-01  0.00000000E+00  0.00000000E+00
                       3.23529412E-01  0.00000000E+00  0.00000000E+00
                       3.52941176E-01  0.00000000E+00  0.00000000E+00
                       3.82352941E-01  0.00000000E+00  0.00000000E+00
                       4.11764706E-01  0.00000000E+00  0.00000000E+00
                       4.41176471E-01  0.00000000E+00  0.00000000E+00
                       4.70588235E-01  0.00000000E+00  0.00000000E+00
                       5.00000000E-01  0.00000000E+00  0.00000000E+00
                       4.83333333E-01  3.33333333E-02  0.00000000E+00
                       4.66666667E-01  6.66666667E-02  0.00000000E+00
                       4.50000000E-01  1.00000000E-01  0.00000000E+00
                       4.33333333E-01  1.33333333E-01  0.00000000E+00
                       4.16666667E-01  1.66666667E-01  0.00000000E+00
                       4.00000000E-01  2.00000000E-01  0.00000000E+00
                       3.83333333E-01  2.33333333E-01  0.00000000E+00
                       3.66666667E-01  2.66666667E-01  0.00000000E+00
                       3.50000000E-01  3.00000000E-01  0.00000000E+00
                       3.33333333E-01  3.33333333E-01  0.00000000E+00
                       3.50000000E-01  3.50000000E-01  2.50000000E-02
                       3.66666667E-01  3.66666667E-01  5.00000000E-02
                       3.83333333E-01  3.83333333E-01  7.50000000E-02
                       4.00000000E-01  4.00000000E-01  1.00000000E-01
                       4.16666667E-01  4.16666667E-01  1.25000000E-01
                       4.33333333E-01  4.33333333E-01  1.50000000E-01
                       4.50000000E-01  4.50000000E-01  1.75000000E-01
                       4.66666667E-01  4.66666667E-01  2.00000000E-01
                       4.83333333E-01  4.83333333E-01  2.25000000E-01
                       5.00000000E-01  5.00000000E-01  2.50000000E-01
                       5.16666667E-01  5.16666667E-01  2.75000000E-01
                       5.33333333E-01  5.33333333E-01  3.00000000E-01
                       5.50000000E-01  5.50000000E-01  3.25000000E-01
                       5.66666667E-01  5.66666667E-01  3.50000000E-01
                       5.83333333E-01  5.83333333E-01  3.75000000E-01
                       6.00000000E-01  6.00000000E-01  4.00000000E-01
                       6.16666667E-01  6.16666667E-01  4.25000000E-01
                       6.33333333E-01  6.33333333E-01  4.50000000E-01
                       6.50000000E-01  6.50000000E-01  4.75000000E-01
                       6.66666667E-01  6.66666667E-01  5.00000000E-01
                       6.83333333E-01  6.83333333E-01  5.25000000E-01
                       7.00000000E-01  7.00000000E-01  5.50000000E-01
                       outvar_i_n : Printing only first  50 k-points.
           kptopt1          1
           kptopt2         -3
         kptrlatt        4    0    0      0    4    0      0    0    1
          kptrlen1     2.38105493E+01
          kptrlen2     3.00000000E+01
P           mkmem1         10
P           mkmem2         68
            natom           3
            nband1         14
            nband2          8
           nbdbuf1          0
           nbdbuf2          2
           ndtset           2
           ndivsm1          0
           ndivsm2         10
            ngfft          30      30     192
             nkpt1         10
             nkpt2         68
            nstep          20
             nsym           1
            ntime          10
           ntypat           2
              occ      2.000000  2.000000  2.000000  2.000000  2.000000  2.000000
                       2.000000  2.000000  2.000000  2.000000  2.000000  2.000000
                       2.000000  0.000000
        optforces           1
            rprim      5.0000000000E-01 -8.6602540378E-01  0.0000000000E+00
                       5.0000000000E-01  8.6602540378E-01  0.0000000000E+00
                       0.0000000000E+00  0.0000000000E+00  1.0000000000E+00
           shiftk1     0.00000000E+00  0.00000000E+00  5.00000000E-01
           shiftk2     5.00000000E-01  5.00000000E-01  5.00000000E-01
          spgroup           1
           toldfe1     1.00000000E-07 Hartree
           toldfe2     0.00000000E+00 Hartree
           tolmxf      5.00000000E-04
           tolwfr1     0.00000000E+00
           tolwfr2     1.00000000E-12
            typat      1  2  2
              wtk1       0.06250    0.12500    0.06250    0.12500    0.12500    0.12500
                         0.12500    0.06250    0.12500    0.06250
              wtk2       1.00000    1.00000    1.00000    1.00000    1.00000    1.00000
                         1.00000    1.00000    1.00000    1.00000    1.00000    1.00000
                         1.00000    1.00000    1.00000    1.00000    1.00000    1.00000
                         1.00000    1.00000    1.00000    1.00000    1.00000    1.00000
                         1.00000    1.00000    1.00000    1.00000    1.00000    1.00000
                         1.00000    1.00000    1.00000    1.00000    1.00000    1.00000
                         1.00000    1.00000    1.00000    1.00000    1.00000    1.00000
                         1.00000    1.00000    1.00000    1.00000    1.00000    1.00000
                         1.00000    1.00000
                       outvars : Printing only first  50 k-points.
           xangst      1.5750000000E+00  9.0932667397E-01  0.0000000000E+00
                       1.5750000000E+00 -9.0932667397E-01 -1.8388847000E+00
                       1.5750000000E+00 -9.0932667397E-01  1.8388847000E+00
            xcart      2.9763186593E+00  1.7183783791E+00  0.0000000000E+00
                       2.9763186593E+00 -1.7183783791E+00 -3.4749884730E+00
                       2.9763186593E+00 -1.7183783791E+00  3.4749884730E+00
             xred      3.3333333333E-01  6.6666666667E-01  0.0000000000E+00
                       6.6666666667E-01  3.3333333333E-01 -9.1944235000E-02
                       6.6666666667E-01  3.3333333333E-01  9.1944235000E-02
            znucl       42.00000   16.00000
 
================================================================================
 
 chkinp: Checking input parameters for consistency, jdtset=   1.
 
 chkinp: Checking input parameters for consistency, jdtset=   2.
 
================================================================================
== DATASET  1 ==================================================================
-   mpi_nproc: 1, omp_nthreads: -1 (-1 if OMP is not activated)
 

--- !DatasetInfo
iteration_state: {dtset: 1, }
dimensions: {natom: 3, nkpt: 10, mband: 14, nsppol: 1, nspinor: 1, nspden: 1, mpw: 9128, }
cutoff_energies: {ecut:  30.0, pawecutdg:  -1.0, }
electrons: {nelect:   2.60000000E+01, charge:   0.00000000E+00, occopt:   1.00000000E+00, tsmear:   1.00000000E-02, }
meta: {optdriver: 0, ionmov: 2, optcell: 0, iscf: 7, paral_kgb: 0, }
...

 Exchange-correlation functional for the present dataset will be:
  GGA: Perdew-Burke-Ernzerhof functional - ixc=11
 Citation for XC functional:
  J.P.Perdew, K.Burke, M.Ernzerhof, PRL 77, 3865 (1996)
 
 Real(R)+Recip(G) space primitive vectors, cartesian coordinates (Bohr,Bohr^-1):
 R(1)=  2.9763187 -5.1551351  0.0000000  G(1)=  0.1679928 -0.0969907  0.0000000
 R(2)=  2.9763187  5.1551351  0.0000000  G(2)=  0.1679928  0.0969907  0.0000000
 R(3)=  0.0000000  0.0000000 37.7945227  G(3)=  0.0000000  0.0000000  0.0264589
 Unit cell volume ucvol=  1.1597873E+03 bohr^3
 Angles (23,13,12)=  9.00000000E+01  9.00000000E+01  1.20000000E+02 degrees
 
 getcut: wavevector=  0.0000  0.0000  0.0000  ngfft=  30  30 192
         ecut(hartree)=     30.000   => boxcut(ratio)=   2.04554
 
--- Pseudopotential description ------------------------------------------------
- pspini: atom type   1  psp file is ./persudo/Mo.psp8
- pspatm: opening atomic psp file    ./persudo/Mo.psp8
- Mo    ONCVPSP-3.2.3.1  r_core=   1.45541   1.45541   1.35488
- 42.00000  14.00000    170510                znucl, zion, pspdat
    8   11    2    4       600   0.00000      pspcod,pspxc,lmax,lloc,mmax,r2well
    5.99000000000000    3.00000000000000    0.00000000000000   rchrg,fchrg,qchrg
     nproj     2     2     2
     extension_switch     1
  pspatm : epsatm=   15.95693586
         --- l  ekb(1:nproj) -->
             0   13.833287    1.350687
             1    8.015347    1.134034
             2    2.765699    0.969071
 pspatm: atomic psp has been read  and splines computed
 
- pspini: atom type   2  psp file is ./persudo/S.psp8
- pspatm: opening atomic psp file    ./persudo/S.psp8
- S     ONCVPSP-4.0.1  r_core=   1.45687   1.45687   1.45687
- 16.00000   6.00000    220131                znucl, zion, pspdat
    8   11    2    4       600   0.00000      pspcod,pspxc,lmax,lloc,mmax,r2well
    5.99000000000000    6.00000000000000    0.00000000000000   rchrg,fchrg,qchrg
     nproj     2     2     2
     extension_switch     1
  pspatm : epsatm=    9.04179351
         --- l  ekb(1:nproj) -->
             0    6.774234    0.542270
             1    3.022426    0.737017
             2   -5.033160   -1.531047
 pspatm: atomic psp has been read  and splines computed
 
   8.85053595E+02                                ecore*ucvol(ha*bohr**3)
--------------------------------------------------------------------------------
 
_setup2: Arith. and geom. avg. npw (full set) are    9108.625    9108.605
 
================================================================================
 
=== [ionmov= 2] Broyden-Fletcher-Goldfard-Shanno method (forces)            
================================================================================
 
--- Iteration: ( 1/10) Internal Cycle: (1/1)
--------------------------------------------------------------------------------
 
---SELF-CONSISTENT-FIELD CONVERGENCE--------------------------------------------

--- !BeginCycle
iteration_state: {dtset: 1, itime: 1, icycle: 1, }
solver: {iscf: 7, nstep: 20, nline: 4, wfoptalg: 0, }
tolerances: {toldfe: 1.00E-07, }
...
 
     iter   Etot(hartree)      deltaE(h)  residm     vres2    diffor    maxfor
 ETOT  1  -91.461366159032    -9.146E+01 7.981E-02 1.048E+04 7.989E-02 7.989E-02
 ETOT  2  -86.493903933820     4.967E+00 6.066E-02 9.386E+04 1.085E+00 1.005E+00
 ETOT  3  -92.239316600703    -5.745E+00 8.989E-02 2.060E+03 8.473E-01 1.574E-01
 ETOT  4  -92.310691320250    -7.137E-02 1.642E-02 1.039E+03 2.967E-02 1.278E-01
 ETOT  5  -92.326348633640    -1.566E-02 3.723E-04 6.349E+02 1.504E-02 1.127E-01
 ETOT  6  -92.331955942841    -5.607E-03 2.482E-04 4.570E+02 9.864E-03 1.029E-01
 ETOT  7  -92.338907844790    -6.952E-03 1.199E-04 2.282E+02 1.446E-02 8.841E-02
 ETOT  8  -92.341969679254    -3.062E-03 2.620E-04 1.141E+02 9.482E-03 7.893E-02
 ETOT  9  -92.342555872414    -5.862E-04 1.441E-04 8.846E+01 2.258E-03 7.667E-02
 ETOT 10  -92.343100119117    -5.442E-04 3.115E-04 6.166E+01 3.593E-03 7.311E-02
 ETOT 11  -92.343392022471    -2.919E-04 1.545E-04 4.456E+01 1.829E-03 7.131E-02
 ETOT 12  -92.343524750404    -1.327E-04 3.275E-04 2.533E+01 3.119E-03 6.820E-02
 ETOT 13  -92.343513968184     1.078E-05 1.391E-04 3.020E+01 1.674E-03 6.985E-02
 ETOT 14  -92.343516264752    -2.297E-06 2.817E-04 2.863E+01 1.492E-04 6.993E-02
 ETOT 15  -92.343529055259    -1.279E-05 1.157E-04 2.619E+01 3.182E-04 6.961E-02
 ETOT 16  -92.343542865477    -1.381E-05 2.248E-04 2.296E+01 4.589E-04 6.919E-02
 ETOT 17  -92.343534577223     8.288E-06 8.765E-05 2.309E+01 4.761E-04 6.964E-02
 ETOT 18  -92.343530380924     4.196E-06 1.644E-04 2.318E+01 1.200E-04 6.976E-02
 ETOT 19  -92.343541126395    -1.075E-05 6.309E-05 2.177E+01 2.865E-04 6.948E-02
 ETOT 20  -92.343549707783    -8.581E-06 1.157E-04 1.971E+01 2.586E-04 6.922E-02
 
 Cartesian components of stress tensor (hartree/bohr^3)
  sigma(1 1)=  9.14992992E-05  sigma(3 2)= -4.39054882E-09
  sigma(2 2)=  9.14837461E-05  sigma(3 1)= -1.63875407E-09
  sigma(3 3)=  4.15059646E-04  sigma(2 1)=  1.00151330E-08
 
 
 scprqt:  WARNING -
  nstep=   20 was not enough SCF cycles to converge;
  maximum energy difference=  8.581E-06 exceeds toldfe=  1.000E-07
 

--- !ResultsGS
iteration_state: {dtset: 1, itime: 1, icycle: 1, }
comment   : Summary of ground state results
lattice_vectors:
- [  2.9763187,  -5.1551351,   0.0000000, ]
- [  2.9763187,   5.1551351,   0.0000000, ]
- [  0.0000000,   0.0000000,  37.7945227, ]
lattice_lengths: [   5.95264,    5.95264,   37.79452, ]
lattice_angles: [ 90.000,  90.000, 120.000, ] # degrees, (23, 13, 12)
lattice_volume:   1.1597873E+03
convergence: {deltae: -8.581E-06, res2:  1.971E+01, residm:  1.157E-04, diffor:  2.586E-04, }
etotal    :  -9.23435497E+01
entropy   :   0.00000000E+00
fermie    :  -7.48922881E-02
cartesian_stress_tensor: # hartree/bohr^3
- [  9.14992992E-05,   1.00151330E-08,  -1.63875407E-09, ]
- [  1.00151330E-08,   9.14837461E-05,  -4.39054882E-09, ]
- [ -1.63875407E-09,  -4.39054882E-09,   4.15059646E-04, ]
pressure_GPa:  -5.8650E+00
xred      :
- [  3.3333E-01,   6.6667E-01,   0.0000E+00, Mo]
- [  6.6667E-01,   3.3333E-01,  -9.1944E-02,  S]
- [  6.6667E-01,   3.3333E-01,   9.1944E-02,  S]
cartesian_forces: # hartree/bohr
- [ -9.25077969E-07,  -6.91151486E-07,  -8.76089458E-06, ]
- [  2.77907180E-07,   1.81500413E-06,   6.92181226E-02, ]
- [  6.47170789E-07,  -1.12385264E-06,  -6.92093617E-02, ]
force_length_stats: {min:   8.83666981E-06, max:   6.92181226E-02, mean:   4.61454403E-02, }
...

 Integrated electronic density in atomic spheres:
 ------------------------------------------------
 Atom  Sphere_radius  Integrated_density
    1        2.00000         10.42349198
    2        2.00000          3.79831482
    3        2.00000          3.79833192
 
---OUTPUT-----------------------------------------------------------------------
 
 Cartesian coordinates (xcart) [bohr]
  2.97631865929489E+00  1.71837837912920E+00  0.00000000000000E+00
  2.97631865929489E+00 -1.71837837912920E+00 -3.47498847295358E+00
  2.97631865929489E+00 -1.71837837912920E+00  3.47498847295358E+00
 Reduced coordinates (xred)
  3.33333333333333E-01  6.66666666666667E-01  0.00000000000000E+00
  6.66666666666667E-01  3.33333333333333E-01 -9.19442350000000E-02
  6.66666666666667E-01  3.33333333333333E-01  9.19442350000000E-02
 Cartesian forces (fcart) [Ha/bohr]; max,rms= 6.92181E-02 3.26277E-02 (free atoms)
 -9.25077969279952E-07 -6.91151486289750E-07 -8.76089457539904E-06
  2.77907179801532E-07  1.81500412542860E-06  6.92181226148330E-02
  6.47170789478420E-07 -1.12385263913885E-06 -6.92093617202576E-02
 Gradient of E wrt nuclear positions in reduced coordinates (gred)
 -8.09652490959412E-07  6.31630613350050E-06  3.31113828531753E-04
  8.52945121670513E-06 -1.01837318662958E-05 -2.61606590349065E+00
 -7.71979872574572E-06  3.86742573279527E-06  2.61573478966212E+00
 Total energy (etotal) [Ha]= -9.23435497077835E+01
 
--- Iteration: ( 2/10) Internal Cycle: (1/1)
--------------------------------------------------------------------------------
 
---SELF-CONSISTENT-FIELD CONVERGENCE--------------------------------------------

--- !BeginCycle
iteration_state: {dtset: 1, itime: 2, icycle: 1, }
solver: {iscf: 7, nstep: 20, nline: 4, wfoptalg: 0, }
tolerances: {toldfe: 1.00E-07, }
...
 
     iter   Etot(hartree)      deltaE(h)  residm     vres2    diffor    maxfor
 ETOT  1  -92.339922178068    -9.234E+01 1.844E-04 4.345E+02 3.058E-02 9.979E-02
 ETOT  2  -92.313145298010     2.678E-02 1.780E-04 5.541E+02 8.478E-02 1.508E-02
 ETOT  3  -92.265328010757     4.782E-02 7.110E-04 1.454E+03 1.242E-01 1.392E-01
 ETOT  4  -92.352475377643    -8.715E-02 4.183E-04 3.119E+00 7.864E-02 6.053E-02
 ETOT  5  -92.352552165080    -7.679E-05 3.277E-05 3.212E+00 2.293E-03 6.282E-02
 ETOT  6  -92.352570633949    -1.847E-05 4.583E-06 3.026E+00 5.332E-04 6.229E-02
 ETOT  7  -92.352570761173    -1.272E-07 1.286E-05 3.023E+00 1.879E-04 6.247E-02
 ETOT  8  -92.352572611599    -1.850E-06 2.185E-06 3.001E+00 4.719E-05 6.243E-02
 ETOT  9  -92.352574649537    -2.038E-06 6.432E-06 2.860E+00 1.079E-04 6.253E-02
 ETOT 10  -92.352574714106    -6.457E-08 1.321E-06 2.496E+00 3.154E-05 6.255E-02
 ETOT 11  -92.352575375876    -6.618E-07 3.977E-06 2.412E+00 1.410E-05 6.256E-02
 ETOT 12  -92.352580479716    -5.104E-06 7.148E-07 1.554E+00 5.819E-04 6.198E-02
 ETOT 13  -92.352578362788     2.117E-06 1.770E-06 1.831E+00 4.220E-04 6.240E-02
 ETOT 14  -92.352579829677    -1.467E-06 4.723E-07 1.565E+00 1.434E-04 6.226E-02
 ETOT 15  -92.352580818610    -9.889E-07 1.421E-06 1.387E+00 1.853E-04 6.208E-02
 ETOT 16  -92.352581259923    -4.413E-07 2.654E-07 1.080E+00 7.287E-05 6.215E-02
 ETOT 17  -92.352581603467    -3.435E-07 8.747E-07 8.973E-01 3.786E-05 6.211E-02
 ETOT 18  -92.352581718730    -1.153E-07 1.523E-07 8.117E-01 1.121E-05 6.210E-02
 ETOT 19  -92.352582042017    -3.233E-07 5.831E-07 6.451E-01 5.736E-05 6.205E-02
 ETOT 20  -92.352582257755    -2.157E-07 8.615E-08 4.961E-01 5.421E-05 6.199E-02
 
 Cartesian components of stress tensor (hartree/bohr^3)
  sigma(1 1)=  8.29428435E-05  sigma(3 2)= -6.66643134E-10
  sigma(2 2)=  8.29406960E-05  sigma(3 1)=  2.39639943E-10
  sigma(3 3)=  3.82359768E-04  sigma(2 1)=  4.03083320E-10
 
 
 scprqt:  WARNING -
  nstep=   20 was not enough SCF cycles to converge;
  maximum energy difference=  2.157E-07 exceeds toldfe=  1.000E-07
 

--- !ResultsGS
iteration_state: {dtset: 1, itime: 2, icycle: 1, }
comment   : Summary of ground state results
lattice_vectors:
- [  2.9763187,  -5.1551351,   0.0000000, ]
- [  2.9763187,   5.1551351,   0.0000000, ]
- [  0.0000000,   0.0000000,  37.7945227, ]
lattice_lengths: [   5.95264,    5.95264,   37.79452, ]
lattice_angles: [ 90.000,  90.000, 120.000, ] # degrees, (23, 13, 12)
lattice_volume:   1.1597873E+03
convergence: {deltae: -2.157E-07, res2:  4.961E-01, residm:  8.615E-08, diffor:  5.421E-05, }
etotal    :  -9.23525823E+01
entropy   :   0.00000000E+00
fermie    :  -6.66513099E-02
cartesian_stress_tensor: # hartree/bohr^3
- [  8.29428435E-05,   4.03083320E-10,   2.39639943E-10, ]
- [  4.03083320E-10,   8.29406960E-05,  -6.66643134E-10, ]
- [  2.39639943E-10,  -6.66643134E-10,   3.82359768E-04, ]
pressure_GPa:  -5.3766E+00
xred      :
- [  3.3333E-01,   6.6667E-01,  -2.3180E-07, Mo]
- [  6.6667E-01,   3.3333E-01,  -9.0113E-02,  S]
- [  6.6667E-01,   3.3333E-01,   9.0113E-02,  S]
cartesian_forces: # hartree/bohr
- [  2.10176185E-07,   2.35754366E-07,   2.71978613E-06, ]
- [ -2.30902710E-07,  -1.96858699E-07,   6.19883329E-02, ]
- [  2.07265249E-08,  -3.88956671E-08,  -6.19910527E-02, ]
force_length_stats: {min:   2.73806332E-06, max:   6.19910527E-02, mean:   4.13273746E-02, }
...

 Integrated electronic density in atomic spheres:
 ------------------------------------------------
 Atom  Sphere_radius  Integrated_density
    1        2.00000         10.43283594
    2        2.00000          3.81973126
    3        2.00000          3.81972771
 
---OUTPUT-----------------------------------------------------------------------
 
 Cartesian coordinates (xcart) [bohr]
  2.97631773421692E+00  1.71837768797772E+00 -8.76089457539904E-06
  2.97631893720207E+00 -1.71837656412508E+00 -3.40577035033874E+00
  2.97631930646568E+00 -1.71837950298184E+00  3.40577911123332E+00
 Reduced coordinates (xred)
  3.33333244962172E-01  6.66666444225017E-01 -2.31803286808047E-07
  6.66666537314600E-01  3.33333556058191E-01 -9.01128023545421E-02
  6.66666884389895E-01  3.33333333050125E-01  9.01130341578289E-02
 Cartesian forces (fcart) [Ha/bohr]; max,rms= 6.19911E-02 2.92222E-02 (free atoms)
  2.10176185307001E-07  2.35754366094862E-07  2.71978613273918E-06
 -2.30902710209670E-07 -1.96858699023301E-07  6.19883329099134E-02
  2.07265249026684E-08 -3.88956670715611E-08 -6.19910526960461E-02
 Gradient of E wrt nuclear positions in reduced coordinates (gred)
  5.89794314379517E-07 -1.84089691851681E-06 -1.02793018617944E-04
 -3.27593151556630E-07  1.70207324131423E-06 -2.34281945267757E+00
 -2.62201162822887E-07  1.38823677202583E-07  2.34292224569619E+00
 Total energy (etotal) [Ha]= -9.23525822577546E+01
 
 Difference of energy with previous step (new-old):
           Absolute (Ha)=-9.03255E-03
           Relative     =-9.78098E-05
 
--- Iteration: ( 3/10) Internal Cycle: (1/1)
--------------------------------------------------------------------------------
 
---SELF-CONSISTENT-FIELD CONVERGENCE--------------------------------------------

--- !BeginCycle
iteration_state: {dtset: 1, itime: 3, icycle: 1, }
solver: {iscf: 7, nstep: 20, nline: 4, wfoptalg: 0, }
tolerances: {toldfe: 1.00E-07, }
...
 
     iter   Etot(hartree)      deltaE(h)  residm     vres2    diffor    maxfor
 ETOT  1  -91.701262793324    -9.170E+01 8.333E-03 1.661E+04 2.725E-01 3.345E-01
 ETOT  2  -91.862034490447    -1.608E-01 3.479E-03 3.909E+03 4.980E-01 1.635E-01
 ETOT  3  -92.309965052588    -4.479E-01 5.629E-03 1.858E+03 1.719E-01 8.344E-03
 ETOT  4  -92.374782091645    -6.482E-02 6.124E-04 4.269E+02 2.936E-02 2.103E-02
 ETOT  5  -92.375813337279    -1.031E-03 2.347E-04 3.564E+02 2.450E-03 2.348E-02
 ETOT  6  -92.376222718575    -4.094E-04 1.830E-04 3.054E+02 2.944E-03 2.642E-02
 ETOT  7  -92.376494777903    -2.721E-04 2.453E-04 2.593E+02 2.085E-03 2.851E-02
 ETOT  8  -92.376755925578    -2.611E-04 1.940E-04 2.095E+02 1.939E-03 3.044E-02
 ETOT  9  -92.376883103037    -1.272E-04 1.305E-04 1.790E+02 9.204E-04 3.136E-02
 ETOT 10  -92.376977821373    -9.472E-05 4.592E-04 1.484E+02 6.964E-04 3.206E-02
 ETOT 11  -92.377007333003    -2.951E-05 2.818E-04 1.329E+02 4.161E-05 3.210E-02
 ETOT 12  -92.377035131927    -2.780E-05 9.788E-04 1.179E+02 4.001E-04 3.250E-02
 ETOT 13  -92.377072508452    -3.738E-05 4.796E-04 1.014E+02 7.392E-04 3.324E-02
 ETOT 14  -92.377068414825     4.094E-06 1.489E-03 9.895E+01 1.886E-04 3.305E-02
 ETOT 15  -92.377060985893     7.429E-06 5.241E-04 1.000E+02 1.021E-04 3.295E-02
 ETOT 16  -92.377080518149    -1.953E-05 1.412E-03 8.095E+01 3.106E-04 3.326E-02
 ETOT 17  -92.377084123080    -3.605E-06 3.695E-04 7.755E+01 7.347E-05 3.333E-02
 ETOT 18  -92.377069620039     1.450E-05 8.899E-04 8.808E+01 2.646E-04 3.307E-02
 ETOT 19  -92.377069965018    -3.450E-07 6.322E-04 8.735E+01 2.551E-06 3.307E-02
 ETOT 20  -92.377069313114     6.519E-07 5.215E-04 8.091E+01 5.111E-05 3.302E-02
 
 Cartesian components of stress tensor (hartree/bohr^3)
  sigma(1 1)= -7.00937273E-05  sigma(3 2)= -3.68272850E-10
  sigma(2 2)= -7.00952551E-05  sigma(3 1)=  8.88007922E-10
  sigma(3 3)= -1.73873482E-04  sigma(2 1)=  1.79386507E-09
 
 
 scprqt:  WARNING -
  nstep=   20 was not enough SCF cycles to converge;
  maximum energy difference=  6.519E-07 exceeds toldfe=  1.000E-07
 

--- !ResultsGS
iteration_state: {dtset: 1, itime: 3, icycle: 1, }
comment   : Summary of ground state results
lattice_vectors:
- [  2.9763187,  -5.1551351,   0.0000000, ]
- [  2.9763187,   5.1551351,   0.0000000, ]
- [  0.0000000,   0.0000000,  37.7945227, ]
lattice_lengths: [   5.95264,    5.95264,   37.79452, ]
lattice_angles: [ 90.000,  90.000, 120.000, ] # degrees, (23, 13, 12)
lattice_volume:   1.1597873E+03
convergence: {deltae:  6.519E-07, res2:  8.091E+01, residm:  5.215E-04, diffor:  5.111E-05, }
etotal    :  -9.23770693E+01
entropy   :   0.00000000E+00
fermie    :  -7.70889191E-02
cartesian_stress_tensor: # hartree/bohr^3
- [ -7.00937273E-05,   1.79386507E-09,   8.88007922E-10, ]
- [  1.79386507E-09,  -7.00952551E-05,  -3.68272850E-10, ]
- [  8.88007922E-10,  -3.68272850E-10,  -1.73873482E-04, ]
pressure_GPa:   3.0800E+00
xred      :
- [  3.3333E-01,   6.6667E-01,   4.5767E-07, Mo]
- [  6.6667E-01,   3.3333E-01,  -7.4399E-02,  S]
- [  6.6667E-01,   3.3333E-01,   7.4398E-02,  S]
cartesian_forces: # hartree/bohr
- [ -3.34524539E-07,  -1.67073773E-06,  -9.34915127E-06, ]
- [  1.15743776E-06,   1.23338054E-06,  -3.30122944E-02, ]
- [ -8.22913216E-07,   4.37357185E-07,   3.30216435E-02, ]
force_length_stats: {min:   9.50315215E-06, max:   3.30216435E-02, mean:   2.20144804E-02, }
...

 Integrated electronic density in atomic spheres:
 ------------------------------------------------
 Atom  Sphere_radius  Integrated_density
    1        2.00000         10.59980275
    2        2.00000          3.98070197
    3        2.00000          3.98071293
 
---OUTPUT-----------------------------------------------------------------------
 
 Cartesian coordinates (xcart) [bohr]
  2.97631974791676E+00  1.71837994674290E+00  1.72974051031513E-05
  2.97631672491999E+00 -1.71837845022839E+00 -2.81185902920862E+00
  2.97631950504792E+00 -1.71837987564372E+00  2.81184173180352E+00
 Reduced coordinates (xred)
  3.33333364170031E-01  6.66667001591164E-01  4.57669627416800E-07
  6.66666348601636E-01  3.33333001476388E-01 -7.43985856012602E-02
  6.66666953895000E-01  3.33333330265781E-01  7.43981279316328E-02
 Cartesian forces (fcart) [Ha/bohr]; max,rms= 3.30216E-02 1.55643E-02 (free atoms)
 -3.34524538756968E-07 -1.67073772564216E-06 -9.34915127225255E-06
  1.15743775522215E-06  1.23338054077579E-06 -3.30122943506905E-02
 -8.22913216465182E-07  4.37357184866373E-07  3.30216435019627E-02
 Gradient of E wrt nuclear positions in reduced coordinates (gred)
 -7.61722712812259E-06  9.60853038151135E-06  3.53346709589534E-04
  2.91333977568333E-06 -9.80314695136348E-06  1.24768390682026E+00
  4.70388735243926E-06  1.94616569852127E-07 -1.24803725352985E+00
 Total energy (etotal) [Ha]= -9.23770693131141E+01
 
 Difference of energy with previous step (new-old):
           Absolute (Ha)=-2.44871E-02
           Relative     =-2.65112E-04
 
--- Iteration: ( 4/10) Internal Cycle: (1/1)
--------------------------------------------------------------------------------
 
---SELF-CONSISTENT-FIELD CONVERGENCE--------------------------------------------

--- !BeginCycle
iteration_state: {dtset: 1, itime: 4, icycle: 1, }
solver: {iscf: 7, nstep: 20, nline: 4, wfoptalg: 0, }
tolerances: {toldfe: 1.00E-07, }
...
 
     iter   Etot(hartree)      deltaE(h)  residm     vres2    diffor    maxfor
 ETOT  1  -92.236193742579    -9.224E+01 1.568E-03 4.302E+03 1.242E-01 1.572E-01
 ETOT  2  -92.215483137493     2.071E-02 1.529E-03 1.474E+03 2.557E-01 9.851E-02
 ETOT  3  -92.292172510479    -7.669E-02 2.154E-03 1.732E+03 1.598E-01 6.132E-02
 ETOT  4  -92.380015818989    -8.784E-02 7.533E-04 1.650E+02 5.861E-02 2.711E-03
 ETOT  5  -92.381561707473    -1.546E-03 7.448E-04 9.160E+01 4.510E-03 1.802E-03
 ETOT  6  -92.381911138893    -3.494E-04 3.497E-04 6.288E+01 2.976E-03 4.778E-03
 ETOT  7  -92.381990419460    -7.928E-05 4.583E-04 5.224E+01 7.625E-04 5.540E-03
 ETOT  8  -92.382042538529    -5.212E-05 2.091E-04 4.368E+01 7.250E-04 6.265E-03
 ETOT  9  -92.382077567502    -3.503E-05 2.898E-04 3.600E+01 5.456E-04 6.810E-03
 ETOT 10  -92.382093157284    -1.559E-05 1.283E-04 3.176E+01 2.908E-04 7.101E-03
 ETOT 11  -92.382095704435    -2.547E-06 1.755E-04 2.951E+01 2.355E-06 7.103E-03
 ETOT 12  -92.382117576123    -2.187E-05 7.692E-05 2.189E+01 5.074E-04 7.611E-03
 ETOT 13  -92.382120022428    -2.446E-06 1.066E-04 2.144E+01 1.946E-04 7.805E-03
 ETOT 14  -92.382119435956     5.865E-07 4.511E-05 2.155E+01 7.817E-06 7.813E-03
 ETOT 15  -92.382118304972     1.131E-06 6.243E-05 2.188E+01 4.684E-05 7.766E-03
 ETOT 16  -92.382116183507     2.121E-06 2.626E-05 2.223E+01 1.496E-04 7.617E-03
 ETOT 17  -92.382118343417    -2.160E-06 3.676E-05 2.114E+01 1.893E-04 7.806E-03
 ETOT 18  -92.382111857888     6.486E-06 1.527E-05 1.912E+01 3.929E-04 7.413E-03
 ETOT 19  -92.382120942273    -9.084E-06 2.104E-05 1.605E+01 2.630E-04 7.676E-03
 ETOT 20  -92.382126846383    -5.904E-06 8.743E-06 1.488E+01 2.334E-04 7.909E-03
 
 Cartesian components of stress tensor (hartree/bohr^3)
  sigma(1 1)=  3.73971209E-06  sigma(3 2)= -5.53905583E-10
  sigma(2 2)=  3.73312731E-06  sigma(3 1)=  1.43581052E-10
  sigma(3 3)=  7.53806988E-05  sigma(2 1)= -3.20678889E-09
 
 
 scprqt:  WARNING -
  nstep=   20 was not enough SCF cycles to converge;
  maximum energy difference=  5.904E-06 exceeds toldfe=  1.000E-07
 

--- !ResultsGS
iteration_state: {dtset: 1, itime: 4, icycle: 1, }
comment   : Summary of ground state results
lattice_vectors:
- [  2.9763187,  -5.1551351,   0.0000000, ]
- [  2.9763187,   5.1551351,   0.0000000, ]
- [  0.0000000,   0.0000000,  37.7945227, ]
lattice_lengths: [   5.95264,    5.95264,   37.79452, ]
lattice_angles: [ 90.000,  90.000, 120.000, ] # degrees, (23, 13, 12)
lattice_volume:   1.1597873E+03
convergence: {deltae: -5.904E-06, res2:  1.488E+01, residm:  8.743E-06, diffor:  2.334E-04, }
etotal    :  -9.23821268E+01
entropy   :   0.00000000E+00
fermie    :  -5.70412130E-02
cartesian_stress_tensor: # hartree/bohr^3
- [  3.73971209E-06,  -3.20678889E-09,   1.43581052E-10, ]
- [ -3.20678889E-09,   3.73312731E-06,  -5.53905583E-10, ]
- [  1.43581052E-10,  -5.53905583E-10,   7.53806988E-05, ]
pressure_GPa:  -8.1254E-01
xred      :
- [  3.3333E-01,   6.6667E-01,   8.1669E-08, Mo]
- [  6.6667E-01,   3.3333E-01,  -7.9860E-02,  S]
- [  6.6667E-01,   3.3333E-01,   7.9859E-02,  S]
cartesian_forces: # hartree/bohr
- [  5.66469275E-07,  -5.34231593E-07,  -1.65010523E-06, ]
- [  5.45253092E-07,   8.93444987E-07,   7.90942861E-03, ]
- [ -1.11172237E-06,  -3.59213394E-07,  -7.90777850E-03, ]
force_length_stats: {min:   1.82459259E-06, max:   7.90942868E-03, mean:   5.27301062E-03, }
...

 Integrated electronic density in atomic spheres:
 ------------------------------------------------
 Atom  Sphere_radius  Integrated_density
    1        2.00000         10.52241714
    2        2.00000          3.90692997
    3        2.00000          3.90693172
 
---OUTPUT-----------------------------------------------------------------------
 
 Cartesian coordinates (xcart) [bohr]
  2.97631890288182E+00  1.71837815358237E+00  3.08663425448353E-06
  2.97631816869609E+00 -1.71837705842492E+00 -3.01825410147559E+00
  2.97631890630676E+00 -1.71837947428666E+00  3.01825101484133E+00
 Reduced coordinates (xred)
  3.33333396130113E-01  6.66666685711571E-01  8.16688249362936E-08
  6.66666456153627E-01  3.33333379012275E-01 -7.98595640117084E-02
  6.66666814382927E-01  3.33333268609487E-01  7.98594823428836E-02
 Cartesian forces (fcart) [Ha/bohr]; max,rms= 7.90943E-03 3.72815E-03 (free atoms)
  5.66469275102828E-07 -5.34231593356068E-07 -1.65010523381614E-06
  5.45253092242501E-07  8.93444987448386E-07  7.90942860686624E-03
 -1.11172236734533E-06 -3.59213394092318E-07 -7.90777850163242E-03
 Gradient of E wrt nuclear positions in reduced coordinates (gred)
 -4.44002913181823E-06  1.06804298500664E-06  6.23649396470745E-05
  2.98298269563841E-06 -6.22867660059760E-06 -2.98933078691768E-01
  1.45704643617982E-06  5.16063361559096E-06  2.98870713752121E-01
 Total energy (etotal) [Ha]= -9.23821268463827E+01
 
 Difference of energy with previous step (new-old):
           Absolute (Ha)=-5.05753E-03
           Relative     =-5.47473E-05
 
--- Iteration: ( 5/10) Internal Cycle: (1/1)
--------------------------------------------------------------------------------
 
---SELF-CONSISTENT-FIELD CONVERGENCE--------------------------------------------

--- !BeginCycle
iteration_state: {dtset: 1, itime: 5, icycle: 1, }
solver: {iscf: 7, nstep: 20, nline: 4, wfoptalg: 0, }
tolerances: {toldfe: 1.00E-07, }
...
 
     iter   Etot(hartree)      deltaE(h)  residm     vres2    diffor    maxfor
 ETOT  1  -92.377171860798    -9.238E+01 9.037E-05 2.119E+02 2.526E-02 3.316E-02
 ETOT  2  -92.377015237331     1.566E-04 2.317E-05 4.419E+01 4.707E-02 1.390E-02
 ETOT  3  -92.369177113044     7.838E-03 1.640E-04 2.073E+02 4.007E-02 2.617E-02
 ETOT  4  -92.382491324855    -1.331E-02 5.291E-05 6.785E+00 2.310E-02 3.064E-03
 ETOT  5  -92.382508315227    -1.699E-05 4.809E-06 6.014E+00 7.804E-05 3.142E-03
 ETOT  6  -92.382514859758    -6.545E-06 4.696E-07 5.444E+00 3.637E-04 2.779E-03
 ETOT  7  -92.382518955382    -4.096E-06 1.261E-06 5.023E+00 1.870E-04 2.592E-03
 ETOT  8  -92.382519266644    -3.113E-07 1.870E-07 4.959E+00 2.111E-06 2.590E-03
 ETOT  9  -92.382528146844    -8.880E-06 3.503E-07 3.648E+00 4.164E-04 2.173E-03
 ETOT 10  -92.382532824848    -4.678E-06 1.334E-07 2.900E+00 2.411E-04 1.932E-03
 ETOT 11  -92.382532172730     6.521E-07 1.587E-07 2.916E+00 8.046E-05 2.013E-03
 ETOT 12  -92.382537326638    -5.154E-06 4.524E-08 1.799E+00 5.548E-04 1.458E-03
 ETOT 13  -92.382536886727     4.399E-07 8.396E-08 2.027E+00 1.727E-04 1.631E-03
 ETOT 14  -92.382537143236    -2.565E-07 2.713E-08 1.916E+00 7.863E-06 1.623E-03
 ETOT 15  -92.382538084731    -9.415E-07 4.497E-08 1.548E+00 1.508E-04 1.472E-03
 ETOT 16  -92.382538600978    -5.162E-07 1.238E-08 1.357E+00 3.158E-05 1.440E-03
 ETOT 17  -92.382538952509    -3.515E-07 2.487E-08 1.004E+00 1.279E-04 1.313E-03
 ETOT 18  -92.382538164863     7.876E-07 7.936E-09 1.385E+00 2.399E-04 1.553E-03
 ETOT 19  -92.382538869756    -7.049E-07 1.026E-08 1.001E+00 6.266E-05 1.490E-03
 ETOT 20  -92.382539170323    -3.006E-07 3.714E-09 8.649E-01 7.343E-05 1.416E-03
 
 Cartesian components of stress tensor (hartree/bohr^3)
  sigma(1 1)= -7.45589171E-06  sigma(3 2)= -8.22707641E-10
  sigma(2 2)= -7.45577226E-06  sigma(3 1)= -1.36592751E-10
  sigma(3 3)=  2.48606632E-05  sigma(2 1)= -8.06277326E-10
 
 
 scprqt:  WARNING -
  nstep=   20 was not enough SCF cycles to converge;
  maximum energy difference=  3.006E-07 exceeds toldfe=  1.000E-07
 

--- !ResultsGS
iteration_state: {dtset: 1, itime: 5, icycle: 1, }
comment   : Summary of ground state results
lattice_vectors:
- [  2.9763187,  -5.1551351,   0.0000000, ]
- [  2.9763187,   5.1551351,   0.0000000, ]
- [  0.0000000,   0.0000000,  37.7945227, ]
lattice_lengths: [   5.95264,    5.95264,   37.79452, ]
lattice_angles: [ 90.000,  90.000, 120.000, ] # degrees, (23, 13, 12)
lattice_volume:   1.1597873E+03
convergence: {deltae: -3.006E-07, res2:  8.649E-01, residm:  3.714E-09, diffor:  7.343E-05, }
etotal    :  -9.23825392E+01
entropy   :   0.00000000E+00
fermie    :  -6.66209944E-02
cartesian_stress_tensor: # hartree/bohr^3
- [ -7.45589171E-06,  -8.06277326E-10,  -1.36592751E-10, ]
- [ -8.06277326E-10,  -7.45577226E-06,  -8.22707641E-10, ]
- [ -1.36592751E-10,  -8.22707641E-10,   2.48606632E-05, ]
pressure_GPa:  -9.7570E-02
xred      :
- [  3.3333E-01,   6.6667E-01,   7.1303E-08, Mo]
- [  6.6667E-01,   3.3333E-01,  -7.8804E-02,  S]
- [  6.6667E-01,   3.3333E-01,   7.8804E-02,  S]
cartesian_forces: # hartree/bohr
- [ -2.16031701E-07,   3.11386128E-07,  -1.20474924E-06, ]
- [ -5.08395042E-08,  -3.48416817E-07,   1.41643033E-03, ]
- [  2.66871205E-07,   3.70306888E-08,  -1.41522558E-03, ]
force_length_stats: {min:   1.26295358E-06, max:   1.41643037E-03, mean:   9.44306309E-04, }
...

 Integrated electronic density in atomic spheres:
 ------------------------------------------------
 Atom  Sphere_radius  Integrated_density
    1        2.00000         10.53600798
    2        2.00000          3.94710823
    3        2.00000          3.94710975
 
---OUTPUT-----------------------------------------------------------------------
 
 Cartesian coordinates (xcart) [bohr]
  2.97631945853746E+00  1.71837774624506E+00  2.69487852398188E-06
  2.97631855324946E+00 -1.71837636824673E+00 -2.97836801323327E+00
  2.97631796609774E+00 -1.71837975712753E+00  2.97836531835475E+00
 Reduced coordinates (xred)
  3.33333528984159E-01  6.66666739549781E-01  7.13034147404935E-08
  6.66666453814969E-01  3.33333510555303E-01 -7.88042235698264E-02
  6.66666683867540E-01  3.33333083228250E-01  7.88041522664117E-02
 Cartesian forces (fcart) [Ha/bohr]; max,rms= 1.41643E-03 6.67428E-04 (free atoms)
 -2.16031701117281E-07  3.11386128112734E-07 -1.20474924008496E-06
 -5.08395041738756E-08 -3.48416816879260E-07  1.41643032636431E-03
  2.66871205291156E-07  3.70306887665269E-08 -1.41522557712422E-03
 Gradient of E wrt nuclear positions in reduced coordinates (gred)
  2.24821675336361E-06 -9.62258387294454E-07  4.55329224512535E-05
 -1.64482121024901E-06  1.94745034005303E-06 -5.35333080628474E-02
 -6.03395543114597E-07 -9.85191952758572E-07  5.34877751403962E-02
 Total energy (etotal) [Ha]= -9.23825391703232E+01
 
 Difference of energy with previous step (new-old):
           Absolute (Ha)=-4.12324E-04
           Relative     =-4.46323E-06
 
--- Iteration: ( 6/10) Internal Cycle: (1/1)
--------------------------------------------------------------------------------
 
---SELF-CONSISTENT-FIELD CONVERGENCE--------------------------------------------

--- !BeginCycle
iteration_state: {dtset: 1, itime: 6, icycle: 1, }
solver: {iscf: 7, nstep: 20, nline: 4, wfoptalg: 0, }
tolerances: {toldfe: 1.00E-07, }
...
 
     iter   Etot(hartree)      deltaE(h)  residm     vres2    diffor    maxfor
 ETOT  1  -92.382406471266    -9.238E+01 3.003E-06 1.722E+01 3.721E-03 5.137E-03
 ETOT  2  -92.382408221178    -1.750E-06 5.702E-07 1.149E+00 8.072E-03 2.935E-03
 ETOT  3  -92.382055117582     3.531E-04 5.105E-06 7.240E+00 7.298E-03 4.364E-03
 ETOT  4  -92.382543989257    -4.889E-04 1.947E-06 2.537E-01 4.419E-03 5.578E-05
 ETOT  5  -92.382545548662    -1.559E-06 3.115E-08 1.553E-01 2.756E-05 8.310E-05
 ETOT  6  -92.382546161580    -6.129E-07 2.862E-09 1.039E-01 1.920E-04 2.750E-04
 ETOT  7  -92.382546241783    -8.020E-08 7.093E-10 9.325E-02 1.566E-05 2.906E-04
 ETOT  8  -92.382546406668    -1.649E-07 1.008E-09 6.639E-02 3.920E-05 3.298E-04
 ETOT  9  -92.382546406741    -7.320E-11 5.039E-10 6.252E-02 3.027E-06 3.267E-04
 ETOT 10  -92.382546570225    -1.635E-07 3.907E-10 4.027E-02 5.852E-05 3.852E-04
 ETOT 11  -92.382546637738    -6.751E-08 6.536E-10 2.506E-02 3.812E-05 4.233E-04
 ETOT 12  -92.382546641938    -4.200E-09 2.561E-10 2.142E-02 3.868E-06 4.272E-04
 
 At SCF step   12, etot is converged : 
  for the second time, diff in etot=  4.200E-09 < toldfe=  1.000E-07
 
 Cartesian components of stress tensor (hartree/bohr^3)
  sigma(1 1)= -1.06907814E-05  sigma(3 2)= -7.07670442E-10
  sigma(2 2)= -1.06912986E-05  sigma(3 1)= -3.33666188E-11
  sigma(3 3)=  1.77416947E-05  sigma(2 1)=  1.56177190E-10
 

--- !ResultsGS
iteration_state: {dtset: 1, itime: 6, icycle: 1, }
comment   : Summary of ground state results
lattice_vectors:
- [  2.9763187,  -5.1551351,   0.0000000, ]
- [  2.9763187,   5.1551351,   0.0000000, ]
- [  0.0000000,   0.0000000,  37.7945227, ]
lattice_lengths: [   5.95264,    5.95264,   37.79452, ]
lattice_angles: [ 90.000,  90.000, 120.000, ] # degrees, (23, 13, 12)
lattice_volume:   1.1597873E+03
convergence: {deltae: -4.200E-09, res2:  2.142E-02, residm:  2.561E-10, diffor:  3.868E-06, }
etotal    :  -9.23825466E+01
entropy   :   0.00000000E+00
fermie    :  -6.42051634E-02
cartesian_stress_tensor: # hartree/bohr^3
- [ -1.06907814E-05,   1.56177190E-10,  -3.33666188E-11, ]
- [  1.56177190E-10,  -1.06912986E-05,  -7.07670442E-10, ]
- [ -3.33666188E-11,  -7.07670442E-10,   1.77416947E-05, ]
pressure_GPa:   3.5701E-02
xred      :
- [  3.3333E-01,   6.6667E-01,   3.9736E-08, Mo]
- [  6.6667E-01,   3.3333E-01,  -7.8574E-02,  S]
- [  6.6667E-01,   3.3333E-01,   7.8574E-02,  S]
cartesian_forces: # hartree/bohr
- [ -9.66717825E-08,   1.81433441E-08,  -7.51542840E-07, ]
- [  4.31389082E-08,  -1.31258582E-07,  -4.26454847E-04, ]
- [  5.35328743E-08,   1.13115238E-07,   4.27206390E-04, ]
force_length_stats: {min:   7.57952014E-07, max:   4.27206408E-04, mean:   2.84806410E-04, }
...

 Integrated electronic density in atomic spheres:
 ------------------------------------------------
 Atom  Sphere_radius  Integrated_density
    1        2.00000         10.53894001
    2        2.00000          3.97076443
    3        2.00000          3.97076537
 
---OUTPUT-----------------------------------------------------------------------
 
 Cartesian coordinates (xcart) [bohr]
  2.97631919303943E+00  1.71837815320353E+00  1.50181765502437E-06
  2.97631845628128E+00 -1.71837683696484E+00 -2.96966981722052E+00
  2.97631832856397E+00 -1.71837969536789E+00  2.96966831540287E+00
 Reduced coordinates (xred)
  3.33333444911236E-01  6.66666734419205E-01  3.97363837248487E-08
  6.66666482986297E-01  3.33333448804067E-01 -7.85740792155366E-02
  6.66666738769134E-01  3.33333150110062E-01  7.85740394791529E-02
 Cartesian forces (fcart) [Ha/bohr]; max,rms= 4.27206E-04 2.01210E-04 (free atoms)
 -9.66717824709770E-08  1.81433441218603E-08 -7.51542840036408E-07
  4.31389081863838E-08 -1.31258581901630E-07 -4.26454847095315E-04
  5.35328742845932E-08  1.13115237779770E-07  4.27206389935351E-04
 Gradient of E wrt nuclear positions in reduced coordinates (gred)
  3.81257420787982E-07  1.94194639203348E-07  2.84042028959979E-05
 -8.05050865021506E-07  5.48260590268020E-07  1.61176573810353E-02
  4.23793444233524E-07 -7.42455229471368E-07 -1.61460615839313E-02
 Total energy (etotal) [Ha]= -9.23825466419382E+01
 
 Difference of energy with previous step (new-old):
           Absolute (Ha)=-7.47162E-06
           Relative     =-8.08769E-08
 
 At Broyd/MD step   6, gradients are converged : 
  max grad (force/stress) = 4.2721E-04 < tolmxf= 5.0000E-04 ha/bohr (free atoms)
 
================================================================================
 
 ----iterations are completed or convergence reached----
 
 Mean square residual over all n,k,spin=   90.729E-13; max=  25.609E-11
 reduced coordinates (array xred) for    3 atoms
       0.333333444911      0.666666734419      0.000000039736
       0.666666482986      0.333333448804     -0.078574079216
       0.666666738769      0.333333150110      0.078574039479
 rms dE/dt=  7.6046E-03; max dE/dt=  1.6118E-02; dE/dt below (all hartree)
    1       0.000000124830      0.000000152859      0.000028254264
    2      -0.000001061478      0.000000506925      0.016117507442
    3       0.000000167366     -0.000000783791     -0.016146211523
 
 cartesian coordinates (angstrom) at end:
    1      1.57500028244544     0.90932655441428     0.00000079472767
    2      1.57499989256982    -0.90932585789077    -1.57148158431073
    3      1.57499982498473    -0.90932737049251     1.57148078958306
 
 cartesian forces (hartree/bohr) at end:
    1     -0.00000009667178     0.00000001814334    -0.00000075154284
    2      0.00000004313891    -0.00000013125858    -0.00042645484710
    3      0.00000005353287     0.00000011311524     0.00042720638994
 frms,max,avg= 2.0121013E-04 4.2720639E-04   5.002E-08 -2.086E-08  3.967E-09 h/b
 
 cartesian forces (eV/Angstrom) at end:
    1     -0.00000497106251     0.00000093296819    -0.00003864588341
    2      0.00000221829166    -0.00000674958709    -0.02192918809597
    3      0.00000275277084     0.00000581661891     0.02196783397938
 frms,max,avg= 1.0346640E-02 2.1967834E-02   2.572E-06 -1.073E-06  2.040E-07 e/A
 length scales=  5.952637318590  5.952637318590 37.794522657713 bohr
              =  3.150000000000  3.150000000000 20.000000000000 angstroms
 prteigrs : about to open file mos2o_DS1_EIG
 Fermi (or HOMO) energy (hartree) =  -0.06421   Average Vxc (hartree)=  -0.14402
 Eigenvalues (hartree) for nkpt=  10  k points:
 kpt#   1, nband= 14, wtk=  0.06250, kpt=  0.0000  0.0000  0.5000 (reduced coord)
  -2.29637   -1.34628   -1.33736   -1.33736   -0.58132   -0.53377   -0.26937   -0.15398
  -0.15398   -0.12948   -0.11274   -0.11274   -0.06421    0.04434
 prteigrs : prtvol=0 or 1, do not print more k-points.
 

--- !EnergyTerms
iteration_state     : {dtset: 1, itime: 6, icycle: 1, }
comment             : Components of total free energy in Hartree
kinetic             :  2.99999875824018E+01
hartree             :  2.84240929282570E+02
xc                  : -1.66201742348844E+01
Ewald energy        :  2.07972972297133E+02
psp_core            :  7.63117176066322E-01
local_psp           : -6.10353415199497E+02
non_local_psp       :  1.16140364542714E+01
total_energy        : -9.23825466419382E+01
total_energy_eV     : -2.51385693863813E+03
band_energy         : -1.70782665663860E+01
...

 rms coord change=  6.3028E-03   atom, delta coord (reduced):
     1        0.000000111578      0.000000067753      0.000000039736
     2       -0.000000183680      0.000000115471      0.013370155784
     3        0.000000072102     -0.000000183223     -0.013370195521
 
 Cartesian components of stress tensor (hartree/bohr^3)
  sigma(1 1)= -1.06907814E-05  sigma(3 2)= -7.07670442E-10
  sigma(2 2)= -1.06912986E-05  sigma(3 1)= -3.33666188E-11
  sigma(3 3)=  1.77416947E-05  sigma(2 1)=  1.56177190E-10
 
-Cartesian components of stress tensor (GPa)         [Pressure=  3.5701E-02 GPa]
- sigma(1 1)= -3.14533594E-01  sigma(3 2)= -2.08203797E-05
- sigma(2 2)= -3.14548812E-01  sigma(3 1)= -9.81679653E-07
- sigma(3 3)=  5.21978591E-01  sigma(2 1)=  4.59489079E-06
 
================================================================================
== DATASET  2 ==================================================================
-   mpi_nproc: 1, omp_nthreads: -1 (-1 if OMP is not activated)
 

--- !DatasetInfo
iteration_state: {dtset: 2, }
dimensions: {natom: 3, nkpt: 68, mband: 8, nsppol: 1, nspinor: 1, nspden: 1, mpw: 9191, }
cutoff_energies: {ecut:  30.0, pawecutdg:  -1.0, }
electrons: {nelect:   2.60000000E+01, charge:   0.00000000E+00, occopt:   1.00000000E+00, tsmear:   1.00000000E-02, }
meta: {optdriver: 0, ionmov: 2, optcell: 0, iscf: -2, paral_kgb: 0, }
...

 mkfilename : getden/=0, take file _DEN from output of DATASET   1.
 
 Exchange-correlation functional for the present dataset will be:
  GGA: Perdew-Burke-Ernzerhof functional - ixc=11
 Citation for XC functional:
  J.P.Perdew, K.Burke, M.Ernzerhof, PRL 77, 3865 (1996)
 
 Real(R)+Recip(G) space primitive vectors, cartesian coordinates (Bohr,Bohr^-1):
 R(1)=  2.9763187 -5.1551351  0.0000000  G(1)=  0.1679928 -0.0969907  0.0000000
 R(2)=  2.9763187  5.1551351  0.0000000  G(2)=  0.1679928  0.0969907  0.0000000
 R(3)=  0.0000000  0.0000000 37.7945227  G(3)=  0.0000000  0.0000000  0.0264589
 Unit cell volume ucvol=  1.1597873E+03 bohr^3
 Angles (23,13,12)=  9.00000000E+01  9.00000000E+01  1.20000000E+02 degrees
 
 getcut: wavevector=  0.0000  0.0000  0.0000  ngfft=  30  30 192
         ecut(hartree)=     30.000   => boxcut(ratio)=   2.04554
--------------------------------------------------------------------------------
 
 
================================================================================
 
=== [ionmov= 2] Broyden-Fletcher-Goldfard-Shanno method (forces)            
================================================================================
 
--- Iteration: ( 1/10) Internal Cycle: (1/1)
--------------------------------------------------------------------------------
 
---SELF-CONSISTENT-FIELD CONVERGENCE--------------------------------------------
 prteigrs : about to open file mos2o_DS2_TIM1_EIG
 Non-SCF case, kpt    1 (  0.00000  0.00000  0.00000), residuals and eigenvalues=
  3.94E-13  7.14E-13  2.93E-13  6.32E-13  6.02E-13  2.77E-13  2.56E-12  3.80E-08
 -2.2910E+00 -1.3394E+00 -1.3281E+00 -1.3281E+00 -5.4861E-01 -5.2521E-01
 -2.4016E-01 -1.4119E-01
 Non-SCF case, kpt    2 (  0.02941  0.00000  0.00000), residuals and eigenvalues=
  5.18E-13  4.65E-13  6.97E-13  5.79E-13  7.45E-13  6.72E-13  7.52E-13  2.26E-08
 -2.2910E+00 -1.3393E+00 -1.3282E+00 -1.3281E+00 -5.4816E-01 -5.2491E-01
 -2.3953E-01 -1.4157E-01
 Non-SCF case, kpt    3 (  0.05882  0.00000  0.00000), residuals and eigenvalues=
  3.26E-13  2.90E-13  7.48E-13  8.80E-13  7.21E-13  4.06E-13  7.77E-12  1.51E-07
 -2.2909E+00 -1.3393E+00 -1.3285E+00 -1.3282E+00 -5.4679E-01 -5.2399E-01
 -2.3766E-01 -1.4269E-01
 Non-SCF case, kpt    4 (  0.08824  0.00000  0.00000), residuals and eigenvalues=
  3.14E-13  5.01E-13  2.74E-13  2.22E-13  9.18E-13  7.11E-13  9.23E-13  4.86E-07
 -2.2909E+00 -1.3392E+00 -1.3291E+00 -1.3283E+00 -5.4454E-01 -5.2247E-01
 -2.3460E-01 -1.4452E-01
 Non-SCF case, kpt    5 (  0.11765  0.00000  0.00000), residuals and eigenvalues=
  4.79E-13  6.04E-13  8.86E-13  8.79E-13  7.03E-13  9.50E-13  2.78E-10  1.07E-06
 -2.2908E+00 -1.3390E+00 -1.3298E+00 -1.3285E+00 -5.4144E-01 -5.2039E-01
 -2.3049E-01 -1.4704E-01
 Non-SCF case, kpt    6 (  0.14706  0.00000  0.00000), residuals and eigenvalues=
  7.39E-13  4.84E-13  7.53E-13  3.37E-13  9.49E-13  8.42E-13  1.98E-11  1.56E-06
 -2.2907E+00 -1.3389E+00 -1.3307E+00 -1.3287E+00 -5.3754E-01 -5.1776E-01
 -2.2548E-01 -1.5026E-01
 Non-SCF case, kpt    7 (  0.17647  0.00000  0.00000), residuals and eigenvalues=
  5.85E-13  8.25E-13  9.86E-13  3.97E-13  5.86E-13  7.97E-13  1.85E-11  2.09E-05
 -2.2906E+00 -1.3387E+00 -1.3317E+00 -1.3289E+00 -5.3290E-01 -5.1464E-01
 -2.1984E-01 -1.5416E-01
 Non-SCF case, kpt    8 (  0.20588  0.00000  0.00000), residuals and eigenvalues=
  3.38E-13  7.70E-13  4.77E-13  3.17E-13  5.41E-13  5.97E-13  4.92E-10  1.08E-05
 -2.2905E+00 -1.3385E+00 -1.3329E+00 -1.3292E+00 -5.2761E-01 -5.1109E-01
 -2.1395E-01 -1.5907E-01
 Non-SCF case, kpt    9 (  0.23529  0.00000  0.00000), residuals and eigenvalues=
  5.60E-13  3.04E-13  7.10E-13  7.97E-13  6.08E-13  3.62E-13  8.79E-09  1.51E-05
 -2.2903E+00 -1.3383E+00 -1.3341E+00 -1.3295E+00 -5.2177E-01 -5.0719E-01
 -2.0837E-01 -1.6487E-01
 Non-SCF case, kpt   10 (  0.26471  0.00000  0.00000), residuals and eigenvalues=
  7.18E-13  9.74E-13  2.95E-13  7.23E-13  5.35E-13  4.47E-13  1.56E-08  2.93E-06
 -2.2902E+00 -1.3381E+00 -1.3353E+00 -1.3298E+00 -5.1551E-01 -5.0303E-01
 -2.0415E-01 -1.7205E-01
 Non-SCF case, kpt   11 (  0.29412  0.00000  0.00000), residuals and eigenvalues=
  6.09E-13  6.71E-13  3.21E-13  7.63E-13  8.86E-13  3.04E-13  1.46E-06  2.13E-05
 -2.2901E+00 -1.3379E+00 -1.3365E+00 -1.3300E+00 -5.0900E-01 -4.9874E-01
 -2.0336E-01 -1.7973E-01
 Non-SCF case, kpt   12 (  0.32353  0.00000  0.00000), residuals and eigenvalues=
  6.50E-13  7.50E-13  2.26E-13  3.93E-13  2.95E-13  4.26E-13  5.13E-05  2.20E-04
 -2.2900E+00 -1.3377E+00 -1.3376E+00 -1.3303E+00 -5.0244E-01 -4.9445E-01
 -2.0797E-01 -1.8258E-01
 Non-SCF case, kpt   13 (  0.35294  0.00000  0.00000), residuals and eigenvalues=
  8.93E-13  3.61E-13  3.54E-13  2.92E-13  4.95E-13  3.72E-13  5.26E-06  2.87E-04
 -2.2899E+00 -1.3386E+00 -1.3375E+00 -1.3306E+00 -4.9607E-01 -4.9032E-01
 -2.1634E-01 -1.9639E-01
 Non-SCF case, kpt   14 (  0.38235  0.00000  0.00000), residuals and eigenvalues=
  6.57E-13  5.79E-13  2.97E-13  2.33E-13  9.69E-13  6.16E-13  2.78E-08  2.25E-07
 -2.2898E+00 -1.3395E+00 -1.3373E+00 -1.3308E+00 -4.9017E-01 -4.8656E-01
 -2.2511E-01 -2.0547E-01
 Non-SCF case, kpt   15 (  0.41176  0.00000  0.00000), residuals and eigenvalues=
  6.85E-13  2.74E-13  7.53E-13  3.10E-13  7.35E-13  8.45E-13  1.21E-09  1.89E-07
 -2.2897E+00 -1.3402E+00 -1.3372E+00 -1.3309E+00 -4.8507E-01 -4.8334E-01
 -2.3292E-01 -2.1223E-01
 Non-SCF case, kpt   16 (  0.44118  0.00000  0.00000), residuals and eigenvalues=
  6.23E-13  4.91E-13  5.74E-13  4.02E-13  5.07E-13  4.01E-13  2.32E-08  2.85E-07
 -2.2896E+00 -1.3408E+00 -1.3371E+00 -1.3311E+00 -4.8110E-01 -4.8087E-01
 -2.3901E-01 -2.1737E-01
 Non-SCF case, kpt   17 (  0.47059  0.00000  0.00000), residuals and eigenvalues=
  5.80E-13  2.22E-13  6.62E-13  1.98E-13  7.76E-13  6.40E-13  7.23E-09  1.69E-07
 -2.2896E+00 -1.3411E+00 -1.3370E+00 -1.3311E+00 -4.7932E-01 -4.7856E-01
 -2.4287E-01 -2.2059E-01
 Non-SCF case, kpt   18 (  0.50000  0.00000  0.00000), residuals and eigenvalues=
  3.82E-13  2.60E-13  2.41E-13  3.06E-13  3.18E-13  8.59E-13  3.44E-08  5.57E-07
 -2.2896E+00 -1.3412E+00 -1.3370E+00 -1.3312E+00 -4.7879E-01 -4.7769E-01
 -2.4419E-01 -2.2168E-01
 Non-SCF case, kpt   19 (  0.48333  0.03333  0.00000), residuals and eigenvalues=
  7.26E-13  3.16E-13  6.47E-13  9.39E-13  5.88E-13  9.02E-13  5.16E-10  5.40E-08
 -2.2896E+00 -1.3412E+00 -1.3370E+00 -1.3313E+00 -4.7862E-01 -4.7748E-01
 -2.4363E-01 -2.2149E-01
 Non-SCF case, kpt   20 (  0.46667  0.06667  0.00000), residuals and eigenvalues=
  8.81E-13  1.96E-13  8.26E-13  6.97E-13  3.71E-13  9.82E-13  2.45E-09  1.26E-08
 -2.2896E+00 -1.3410E+00 -1.3370E+00 -1.3316E+00 -4.7814E-01 -4.7687E-01
 -2.4197E-01 -2.2094E-01
 Non-SCF case, kpt   21 (  0.45000  0.10000  0.00000), residuals and eigenvalues=
  5.85E-13  3.13E-13  3.55E-13  5.39E-13  9.71E-13  4.40E-13  1.09E-09  1.09E-07
 -2.2895E+00 -1.3408E+00 -1.3370E+00 -1.3320E+00 -4.7736E-01 -4.7588E-01
 -2.3924E-01 -2.2010E-01
 Non-SCF case, kpt   22 (  0.43333  0.13333  0.00000), residuals and eigenvalues=
  7.25E-13  6.52E-13  3.23E-13  4.60E-13  7.29E-13  5.60E-13  2.62E-08  1.19E-07
 -2.2895E+00 -1.3405E+00 -1.3369E+00 -1.3326E+00 -4.7635E-01 -4.7458E-01
 -2.3551E-01 -2.1908E-01
 Non-SCF case, kpt   23 (  0.41667  0.16667  0.00000), residuals and eigenvalues=
  8.82E-13  4.62E-13  7.17E-13  5.90E-13  9.79E-13  4.68E-13  3.36E-09  5.26E-08
 -2.2895E+00 -1.3401E+00 -1.3369E+00 -1.3333E+00 -4.7518E-01 -4.7306E-01
 -2.3084E-01 -2.1805E-01
 Non-SCF case, kpt   24 (  0.40000  0.20000  0.00000), residuals and eigenvalues=
  7.53E-13  9.40E-13  6.73E-13  9.61E-13  7.59E-13  7.75E-13  2.05E-08  4.26E-07
 -2.2895E+00 -1.3397E+00 -1.3368E+00 -1.3341E+00 -4.7394E-01 -4.7144E-01
 -2.2537E-01 -2.1723E-01
 Non-SCF case, kpt   25 (  0.38333  0.23333  0.00000), residuals and eigenvalues=
  3.71E-13  5.61E-13  4.31E-13  2.41E-13  9.13E-13  9.73E-13  2.64E-08  1.77E-08
 -2.2894E+00 -1.3391E+00 -1.3368E+00 -1.3349E+00 -4.7275E-01 -4.6986E-01
 -2.1927E-01 -2.1679E-01
 Non-SCF case, kpt   26 (  0.36667  0.26667  0.00000), residuals and eigenvalues=
  6.66E-13  3.33E-13  9.51E-13  9.67E-13  9.60E-13  9.91E-13  3.59E-08  2.57E-08
 -2.2894E+00 -1.3386E+00 -1.3367E+00 -1.3357E+00 -4.7173E-01 -4.6849E-01
 -2.1680E-01 -2.1287E-01
 Non-SCF case, kpt   27 (  0.35000  0.30000  0.00000), residuals and eigenvalues=
  6.93E-13  2.86E-13  4.77E-13  8.64E-13  4.39E-13  8.90E-13  1.47E-08  9.44E-07
 -2.2894E+00 -1.3380E+00 -1.3367E+00 -1.3365E+00 -4.7103E-01 -4.6752E-01
 -2.1709E-01 -2.0705E-01
 Non-SCF case, kpt   28 (  0.33333  0.33333  0.00000), residuals and eigenvalues=
  7.15E-13  4.03E-13  3.80E-13  3.82E-13  8.71E-13  5.41E-13  1.33E-08  4.14E-07
 -2.2894E+00 -1.3376E+00 -1.3369E+00 -1.3367E+00 -4.7076E-01 -4.6715E-01
 -2.1729E-01 -2.0432E-01
 Non-SCF case, kpt   29 (  0.35000  0.35000  0.02500), residuals and eigenvalues=
  8.59E-13  4.94E-13  2.92E-13  9.71E-13  5.96E-13  7.81E-13  1.75E-07  2.68E-07
 -2.2894E+00 -1.3380E+00 -1.3367E+00 -1.3365E+00 -4.7103E-01 -4.6752E-01
 -2.1709E-01 -2.0705E-01
 Non-SCF case, kpt   30 (  0.36667  0.36667  0.05000), residuals and eigenvalues=
  5.04E-13  3.86E-13  9.74E-13  5.76E-13  9.25E-13  2.23E-13  3.53E-08  1.78E-07
 -2.2894E+00 -1.3386E+00 -1.3367E+00 -1.3357E+00 -4.7173E-01 -4.6849E-01
 -2.1680E-01 -2.1287E-01
 Non-SCF case, kpt   31 (  0.38333  0.38333  0.07500), residuals and eigenvalues=
  3.88E-13  9.79E-13  2.12E-13  8.40E-13  8.17E-13  8.06E-13  7.66E-09  1.79E-08
 -2.2894E+00 -1.3391E+00 -1.3368E+00 -1.3349E+00 -4.7275E-01 -4.6986E-01
 -2.1927E-01 -2.1679E-01
 Non-SCF case, kpt   32 (  0.40000  0.40000  0.10000), residuals and eigenvalues=
  3.19E-13  5.97E-13  5.20E-13  8.33E-13  5.17E-13  7.78E-13  8.65E-08  2.24E-07
 -2.2895E+00 -1.3397E+00 -1.3368E+00 -1.3341E+00 -4.7394E-01 -4.7144E-01
 -2.2537E-01 -2.1723E-01
 Non-SCF case, kpt   33 (  0.41667  0.41667  0.12500), residuals and eigenvalues=
  8.73E-13  2.35E-13  4.08E-13  3.19E-13  8.07E-13  9.13E-13  1.10E-09  8.57E-08
 -2.2895E+00 -1.3401E+00 -1.3369E+00 -1.3333E+00 -4.7518E-01 -4.7306E-01
 -2.3084E-01 -2.1805E-01
 Non-SCF case, kpt   34 (  0.43333  0.43333  0.15000), residuals and eigenvalues=
  8.03E-13  9.11E-13  5.95E-13  2.84E-13  5.10E-13  5.32E-13  1.61E-09  2.91E-08
 -2.2895E+00 -1.3405E+00 -1.3369E+00 -1.3326E+00 -4.7635E-01 -4.7458E-01
 -2.3551E-01 -2.1908E-01
 Non-SCF case, kpt   35 (  0.45000  0.45000  0.17500), residuals and eigenvalues=
  6.46E-13  2.39E-13  8.97E-13  4.16E-13  6.77E-13  4.19E-13  1.93E-09  9.76E-08
 -2.2895E+00 -1.3408E+00 -1.3370E+00 -1.3320E+00 -4.7736E-01 -4.7588E-01
 -2.3924E-01 -2.2010E-01
 Non-SCF case, kpt   36 (  0.46667  0.46667  0.20000), residuals and eigenvalues=
  7.47E-13  3.16E-13  7.12E-13  4.03E-13  6.51E-13  5.13E-13  9.16E-09  1.26E-07
 -2.2896E+00 -1.3410E+00 -1.3370E+00 -1.3315E+00 -4.7814E-01 -4.7687E-01
 -2.4197E-01 -2.2094E-01
 Non-SCF case, kpt   37 (  0.48333  0.48333  0.22500), residuals and eigenvalues=
  7.37E-13  3.34E-13  1.99E-13  2.00E-13  6.36E-13  5.30E-13  1.44E-08  3.45E-08
 -2.2896E+00 -1.3412E+00 -1.3370E+00 -1.3313E+00 -4.7862E-01 -4.7748E-01
 -2.4363E-01 -2.2149E-01
 Non-SCF case, kpt   38 (  0.50000  0.50000  0.25000), residuals and eigenvalues=
  6.43E-13  2.40E-13  4.38E-13  8.89E-13  9.79E-13  6.30E-13  2.56E-09  9.92E-08
 -2.2896E+00 -1.3412E+00 -1.3370E+00 -1.3312E+00 -4.7879E-01 -4.7769E-01
 -2.4419E-01 -2.2169E-01
 Non-SCF case, kpt   39 (  0.51667  0.51667  0.27500), residuals and eigenvalues=
  5.46E-13  2.62E-13  6.36E-13  3.04E-13  8.62E-13  5.02E-13  1.15E-08  2.01E-07
 -2.2896E+00 -1.3412E+00 -1.3370E+00 -1.3313E+00 -4.7862E-01 -4.7748E-01
 -2.4363E-01 -2.2149E-01
 Non-SCF case, kpt   40 (  0.53333  0.53333  0.30000), residuals and eigenvalues=
  8.86E-13  5.56E-13  2.41E-13  4.62E-13  7.12E-13  7.42E-13  9.06E-09  2.92E-07
 -2.2896E+00 -1.3410E+00 -1.3370E+00 -1.3315E+00 -4.7814E-01 -4.7687E-01
 -2.4197E-01 -2.2094E-01
 Non-SCF case, kpt   41 (  0.55000  0.55000  0.32500), residuals and eigenvalues=
  9.28E-13  1.93E-13  2.33E-13  8.95E-13  5.48E-13  5.46E-13  3.82E-09  1.49E-07
 -2.2895E+00 -1.3408E+00 -1.3370E+00 -1.3320E+00 -4.7736E-01 -4.7588E-01
 -2.3924E-01 -2.2010E-01
 Non-SCF case, kpt   42 (  0.56667  0.56667  0.35000), residuals and eigenvalues=
  7.46E-13  4.08E-13  8.89E-13  5.30E-13  8.14E-13  4.98E-13  5.45E-10  1.35E-08
 -2.2895E+00 -1.3405E+00 -1.3369E+00 -1.3326E+00 -4.7635E-01 -4.7458E-01
 -2.3551E-01 -2.1908E-01
 Non-SCF case, kpt   43 (  0.58333  0.58333  0.37500), residuals and eigenvalues=
  3.74E-13  4.00E-13  9.66E-13  8.28E-13  6.19E-13  7.65E-13  1.15E-08  3.44E-08
 -2.2895E+00 -1.3401E+00 -1.3369E+00 -1.3333E+00 -4.7518E-01 -4.7306E-01
 -2.3084E-01 -2.1805E-01
 Non-SCF case, kpt   44 (  0.60000  0.60000  0.40000), residuals and eigenvalues=
  9.45E-13  2.46E-13  5.56E-13  6.71E-13  8.69E-13  9.23E-13  1.91E-08  5.11E-09
 -2.2895E+00 -1.3397E+00 -1.3368E+00 -1.3340E+00 -4.7394E-01 -4.7144E-01
 -2.2537E-01 -2.1723E-01
 Non-SCF case, kpt   45 (  0.61667  0.61667  0.42500), residuals and eigenvalues=
  4.71E-13  4.61E-13  5.78E-13  2.70E-13  4.20E-13  8.82E-13  1.00E-07  5.16E-08
 -2.2894E+00 -1.3391E+00 -1.3368E+00 -1.3349E+00 -4.7275E-01 -4.6986E-01
 -2.1927E-01 -2.1679E-01
 Non-SCF case, kpt   46 (  0.63333  0.63333  0.45000), residuals and eigenvalues=
  3.72E-13  4.11E-13  6.27E-13  9.86E-13  5.70E-13  9.40E-13  8.26E-09  2.02E-08
 -2.2894E+00 -1.3386E+00 -1.3368E+00 -1.3357E+00 -4.7173E-01 -4.6849E-01
 -2.1680E-01 -2.1287E-01
 Non-SCF case, kpt   47 (  0.65000  0.65000  0.47500), residuals and eigenvalues=
  7.04E-13  6.81E-13  6.23E-13  4.01E-13  2.06E-13  6.44E-13  1.54E-08  5.60E-07
 -2.2894E+00 -1.3380E+00 -1.3367E+00 -1.3365E+00 -4.7103E-01 -4.6752E-01
 -2.1709E-01 -2.0705E-01
 Non-SCF case, kpt   48 (  0.66667  0.66667  0.50000), residuals and eigenvalues=
  6.32E-13  2.43E-13  2.63E-13  6.81E-13  8.82E-13  7.76E-13  8.84E-08  7.46E-08
 -2.2894E+00 -1.3376E+00 -1.3369E+00 -1.3367E+00 -4.7076E-01 -4.6715E-01
 -2.1729E-01 -2.0432E-01
 Non-SCF case, kpt   49 (  0.68333  0.68333  0.52500), residuals and eigenvalues=
  7.33E-13  3.11E-13  7.85E-13  3.38E-13  8.71E-13  7.17E-13  1.22E-07  1.35E-06
 -2.2894E+00 -1.3380E+00 -1.3367E+00 -1.3365E+00 -4.7106E-01 -4.6758E-01
 -2.1694E-01 -2.0665E-01
 Non-SCF case, kpt   50 (  0.70000  0.70000  0.55000), residuals and eigenvalues=
  7.88E-13  8.39E-13  6.53E-13  7.58E-13  6.00E-13  4.92E-13  3.44E-08  9.11E-08
 -2.2894E+00 -1.3384E+00 -1.3368E+00 -1.3358E+00 -4.7201E-01 -4.6895E-01
 -2.1560E-01 -2.1057E-01
 Non-SCF case, kpt   51 (  0.71667  0.71667  0.57500), residuals and eigenvalues=
  7.80E-13  8.16E-13  2.79E-13  1.89E-13  2.16E-13  9.47E-13  2.01E-08  1.79E-08
 -2.2895E+00 -1.3387E+00 -1.3368E+00 -1.3351E+00 -4.7365E-01 -4.7136E-01
 -2.1341E-01 -2.1296E-01
 Non-SCF case, kpt   52 (  0.73333  0.73333  0.60000), residuals and eigenvalues=
  3.73E-13  5.25E-13  3.56E-13  8.16E-13  8.88E-13  7.19E-13  1.56E-08  4.37E-08
 -2.2895E+00 -1.3388E+00 -1.3369E+00 -1.3344E+00 -4.7597E-01 -4.7482E-01
 -2.1438E-01 -2.0885E-01
 Non-SCF case, kpt   53 (  0.75000  0.75000  0.62500), residuals and eigenvalues=
  8.47E-13  9.16E-13  2.31E-13  8.22E-13  6.48E-13  5.57E-13  1.01E-07  8.69E-07
 -2.2896E+00 -1.3388E+00 -1.3370E+00 -1.3337E+00 -4.7926E-01 -4.7893E-01
 -2.1331E-01 -2.0323E-01
 Non-SCF case, kpt   54 (  0.76667  0.76667  0.65000), residuals and eigenvalues=
  6.37E-13  3.43E-13  3.69E-13  2.65E-13  3.83E-13  9.27E-13  5.54E-08  2.80E-06
 -2.2897E+00 -1.3385E+00 -1.3371E+00 -1.3330E+00 -4.8455E-01 -4.8243E-01
 -2.1034E-01 -1.9618E-01
 Non-SCF case, kpt   55 (  0.78333  0.78333  0.67500), residuals and eigenvalues=
  8.53E-13  8.81E-13  4.87E-13  9.98E-13  7.12E-13  5.33E-13  7.32E-07  1.85E-05
 -2.2898E+00 -1.3380E+00 -1.3373E+00 -1.3324E+00 -4.9048E-01 -4.8635E-01
 -2.0581E-01 -1.8795E-01
 Non-SCF case, kpt   56 (  0.80000  0.80000  0.70000), residuals and eigenvalues=
  7.72E-13  4.01E-13  7.00E-13  3.08E-13  2.61E-13  3.27E-13  1.56E-06  5.00E-05
 -2.2899E+00 -1.3375E+00 -1.3374E+00 -1.3318E+00 -4.9684E-01 -4.9056E-01
 -2.0053E-01 -1.7836E-01
 Non-SCF case, kpt   57 (  0.81667  0.81667  0.72500), residuals and eigenvalues=
  7.14E-13  6.27E-13  6.62E-13  3.51E-13  3.25E-13  8.13E-13  6.03E-06  6.60E-06
 -2.2900E+00 -1.3377E+00 -1.3366E+00 -1.3312E+00 -5.0343E-01 -4.9493E-01
 -1.9661E-01 -1.7762E-01
 Non-SCF case, kpt   58 (  0.83333  0.83333  0.75000), residuals and eigenvalues=
  7.73E-13  7.80E-13  3.83E-13  4.12E-13  8.36E-13  9.03E-13  1.17E-07  6.02E-06
 -2.2901E+00 -1.3379E+00 -1.3357E+00 -1.3307E+00 -5.1004E-01 -4.9933E-01
 -1.9744E-01 -1.7364E-01
 Non-SCF case, kpt   59 (  0.85000  0.85000  0.77500), residuals and eigenvalues=
  4.60E-13  6.27E-13  5.80E-13  8.21E-13  5.64E-13  1.97E-13  2.86E-08  1.10E-05
 -2.2902E+00 -1.3381E+00 -1.3347E+00 -1.3302E+00 -5.1648E-01 -5.0363E-01
 -2.0201E-01 -1.6534E-01
 Non-SCF case, kpt   60 (  0.86667  0.86667  0.80000), residuals and eigenvalues=
  5.77E-13  2.64E-13  9.22E-13  3.56E-13  7.32E-13  4.26E-13  3.94E-09  4.15E-05
 -2.2904E+00 -1.3383E+00 -1.3337E+00 -1.3297E+00 -5.2262E-01 -5.0774E-01
 -2.0793E-01 -1.5734E-01
 Non-SCF case, kpt   61 (  0.88333  0.88333  0.82500), residuals and eigenvalues=
  6.74E-13  6.45E-13  7.78E-13  4.91E-13  6.76E-13  3.34E-13  3.41E-10  4.06E-06
 -2.2905E+00 -1.3385E+00 -1.3326E+00 -1.3293E+00 -5.2831E-01 -5.1155E-01
 -2.1420E-01 -1.5607E-01
 Non-SCF case, kpt   62 (  0.90000  0.90000  0.85000), residuals and eigenvalues=
  8.97E-13  9.23E-13  1.95E-13  8.46E-13  5.85E-13  2.53E-13  1.52E-11  1.49E-05
 -2.2906E+00 -1.3387E+00 -1.3315E+00 -1.3290E+00 -5.3344E-01 -5.1500E-01
 -2.2030E-01 -1.5265E-01
 Non-SCF case, kpt   63 (  0.91667  0.91667  0.87500), residuals and eigenvalues=
  6.39E-13  1.91E-13  6.25E-13  8.51E-13  9.87E-13  2.66E-13  1.18E-10  3.80E-06
 -2.2907E+00 -1.3389E+00 -1.3306E+00 -1.3287E+00 -5.3793E-01 -5.1802E-01
 -2.2591E-01 -1.4954E-01
 Non-SCF case, kpt   64 (  0.93333  0.93333  0.90000), residuals and eigenvalues=
  6.00E-13  9.29E-13  3.23E-13  2.03E-13  7.11E-13  2.99E-13  1.45E-11  1.00E-06
 -2.2908E+00 -1.3391E+00 -1.3297E+00 -1.3285E+00 -5.4170E-01 -5.2056E-01
 -2.3081E-01 -1.4672E-01
 Non-SCF case, kpt   65 (  0.95000  0.95000  0.92500), residuals and eigenvalues=
  5.27E-13  9.45E-13  2.35E-13  3.03E-13  9.38E-13  7.75E-13  5.55E-11  2.71E-07
 -2.2909E+00 -1.3392E+00 -1.3290E+00 -1.3283E+00 -5.4469E-01 -5.2257E-01
 -2.3480E-01 -1.4438E-01
 Non-SCF case, kpt   66 (  0.96667  0.96667  0.95000), residuals and eigenvalues=
  5.70E-13  6.74E-13  7.51E-13  8.41E-13  9.63E-13  5.55E-13  7.63E-12  3.38E-08
 -2.2910E+00 -1.3393E+00 -1.3285E+00 -1.3282E+00 -5.4686E-01 -5.2403E-01
 -2.3775E-01 -1.4263E-01
 Non-SCF case, kpt   67 (  0.98333  0.98333  0.97500), residuals and eigenvalues=
  7.99E-13  3.33E-13  3.27E-13  9.44E-13  8.53E-13  7.41E-13  8.59E-12  5.24E-07
 -2.2910E+00 -1.3393E+00 -1.3282E+00 -1.3281E+00 -5.4817E-01 -5.2492E-01
 -2.3955E-01 -1.4156E-01
 Non-SCF case, kpt   68 (  1.00000  1.00000  1.00000), residuals and eigenvalues=
  5.45E-13  3.15E-13  7.68E-13  8.44E-13  7.18E-13  6.56E-13  5.36E-12  5.22E-07
 -2.2910E+00 -1.3394E+00 -1.3281E+00 -1.3281E+00 -5.4861E-01 -5.2521E-01
 -2.4016E-01 -1.4119E-01
 

--- !ResultsGS
iteration_state: {dtset: 2, itime: 1, icycle: 1, }
comment   : Summary of ground state results
lattice_vectors:
- [  2.9763187,  -5.1551351,   0.0000000, ]
- [  2.9763187,   5.1551351,   0.0000000, ]
- [  0.0000000,   0.0000000,  37.7945227, ]
lattice_lengths: [   5.95264,    5.95264,   37.79452, ]
lattice_angles: [ 90.000,  90.000, 120.000, ] # degrees, (23, 13, 12)
lattice_volume:   1.1597873E+03
convergence: {deltae:  0.000E+00, res2:  0.000E+00, residm:  9.981E-13, diffor:  0.000E+00, }
etotal    :  -9.23435497E+01
entropy   :   0.00000000E+00
fermie    :  -7.48922881E-02
cartesian_stress_tensor: null
pressure_GPa: null
xred      :
- [  3.3333E-01,   6.6667E-01,   0.0000E+00, Mo]
- [  6.6667E-01,   3.3333E-01,  -9.1944E-02,  S]
- [  6.6667E-01,   3.3333E-01,   9.1944E-02,  S]
cartesian_forces: null
force_length_stats: {min: null, max: null, mean: null, }
...

 Integrated electronic density in atomic spheres:
 ------------------------------------------------
 Atom  Sphere_radius  Integrated_density
    1        2.00000         10.42349198
    2        2.00000          3.79831482
    3        2.00000          3.79833192
 
---OUTPUT-----------------------------------------------------------------------
 
 Cartesian coordinates (xcart) [bohr]
  2.97631865929489E+00  1.71837837912920E+00  0.00000000000000E+00
  2.97631865929489E+00 -1.71837837912920E+00 -3.47498847295358E+00
  2.97631865929489E+00 -1.71837837912920E+00  3.47498847295358E+00
 Reduced coordinates (xred)
  3.33333333333333E-01  6.66666666666667E-01  0.00000000000000E+00
  6.66666666666667E-01  3.33333333333333E-01 -9.19442350000000E-02
  6.66666666666667E-01  3.33333333333333E-01  9.19442350000000E-02
 Cartesian forces (fcart) [Ha/bohr]; max,rms= 1.00000+100 1.00000+100 (free atoms)
  9.99999999990000E+99  9.99999999990000E+99  9.99999999990000E+99
  9.99999999990000E+99  9.99999999990000E+99  9.99999999990000E+99
  9.99999999990000E+99  9.99999999990000E+99  9.99999999990000E+99
 Gradient of E wrt nuclear positions in reduced coordinates (gred)
  2.17881647807093+100 -8.13145379660118+100 -3.77945226573349+101
  2.17881647807093+100 -8.13145379660118+100 -3.77945226573349+101
  2.17881647807093+100 -8.13145379660118+100 -3.77945226573349+101
 Total energy (etotal) [Ha]= -9.23435497077835E+01
 
--- Iteration: ( 2/10) Internal Cycle: (1/1)
--------------------------------------------------------------------------------
 
---SELF-CONSISTENT-FIELD CONVERGENCE--------------------------------------------
 prteigrs : about to open file mos2o_DS2_TIM2_EIG
 Non-SCF case, kpt    1 (  0.00000  0.00000  0.00000), residuals and eigenvalues=
  3.94E-13  7.14E-13  2.93E-13  6.32E-13  6.02E-13  2.77E-13  9.37E-13  2.48E-08
 -2.2910E+00 -1.3394E+00 -1.3281E+00 -1.3281E+00 -5.4861E-01 -5.2521E-01
 -2.4016E-01 -1.4119E-01
 Non-SCF case, kpt    2 (  0.02941  0.00000  0.00000), residuals and eigenvalues=
  5.18E-13  4.65E-13  6.97E-13  5.79E-13  7.45E-13  6.72E-13  7.52E-13  1.65E-08
 -2.2910E+00 -1.3393E+00 -1.3282E+00 -1.3281E+00 -5.4816E-01 -5.2491E-01
 -2.3953E-01 -1.4157E-01
 Non-SCF case, kpt    3 (  0.05882  0.00000  0.00000), residuals and eigenvalues=
  3.26E-13  2.90E-13  7.48E-13  8.80E-13  7.21E-13  4.06E-13  1.64E-12  2.38E-08
 -2.2909E+00 -1.3393E+00 -1.3285E+00 -1.3282E+00 -5.4679E-01 -5.2399E-01
 -2.3766E-01 -1.4269E-01
 Non-SCF case, kpt    4 (  0.08824  0.00000  0.00000), residuals and eigenvalues=
  3.14E-13  5.01E-13  2.74E-13  2.22E-13  9.18E-13  7.11E-13  9.23E-13  3.76E-07
 -2.2909E+00 -1.3392E+00 -1.3291E+00 -1.3283E+00 -5.4454E-01 -5.2247E-01
 -2.3460E-01 -1.4452E-01
 Non-SCF case, kpt    5 (  0.11765  0.00000  0.00000), residuals and eigenvalues=
  4.79E-13  6.04E-13  8.86E-13  8.79E-13  7.03E-13  9.50E-13  5.32E-11  7.59E-07
 -2.2908E+00 -1.3390E+00 -1.3298E+00 -1.3285E+00 -5.4144E-01 -5.2039E-01
 -2.3049E-01 -1.4704E-01
 Non-SCF case, kpt    6 (  0.14706  0.00000  0.00000), residuals and eigenvalues=
  7.39E-13  4.84E-13  7.53E-13  3.37E-13  9.49E-13  8.42E-13  5.60E-12  6.38E-07
 -2.2907E+00 -1.3389E+00 -1.3307E+00 -1.3287E+00 -5.3754E-01 -5.1776E-01
 -2.2548E-01 -1.5026E-01
 Non-SCF case, kpt    7 (  0.17647  0.00000  0.00000), residuals and eigenvalues=
  5.85E-13  8.25E-13  9.86E-13  3.97E-13  5.86E-13  7.97E-13  2.39E-12  8.07E-06
 -2.2906E+00 -1.3387E+00 -1.3317E+00 -1.3289E+00 -5.3290E-01 -5.1464E-01
 -2.1984E-01 -1.5420E-01
 Non-SCF case, kpt    8 (  0.20588  0.00000  0.00000), residuals and eigenvalues=
  3.38E-13  7.70E-13  4.77E-13  3.17E-13  5.41E-13  5.97E-13  1.15E-10  7.46E-06
 -2.2905E+00 -1.3385E+00 -1.3329E+00 -1.3292E+00 -5.2761E-01 -5.1109E-01
 -2.1395E-01 -1.5909E-01
 Non-SCF case, kpt    9 (  0.23529  0.00000  0.00000), residuals and eigenvalues=
  5.60E-13  3.04E-13  7.10E-13  7.97E-13  6.08E-13  3.62E-13  3.06E-09  9.07E-06
 -2.2903E+00 -1.3383E+00 -1.3341E+00 -1.3295E+00 -5.2177E-01 -5.0719E-01
 -2.0837E-01 -1.6491E-01
 Non-SCF case, kpt   10 (  0.26471  0.00000  0.00000), residuals and eigenvalues=
  7.18E-13  9.74E-13  2.95E-13  7.23E-13  5.35E-13  4.47E-13  4.57E-09  4.03E-06
 -2.2902E+00 -1.3381E+00 -1.3353E+00 -1.3298E+00 -5.1551E-01 -5.0303E-01
 -2.0415E-01 -1.7207E-01
 Non-SCF case, kpt   11 (  0.29412  0.00000  0.00000), residuals and eigenvalues=
  6.09E-13  6.71E-13  3.21E-13  7.63E-13  8.86E-13  3.04E-13  6.49E-07  1.16E-05
 -2.2901E+00 -1.3379E+00 -1.3365E+00 -1.3300E+00 -5.0900E-01 -4.9874E-01
 -2.0336E-01 -1.7978E-01
 Non-SCF case, kpt   12 (  0.32353  0.00000  0.00000), residuals and eigenvalues=
  6.50E-13  7.50E-13  2.26E-13  3.93E-13  2.95E-13  4.27E-13  2.83E-05  3.25E-04
 -2.2900E+00 -1.3377E+00 -1.3376E+00 -1.3303E+00 -5.0244E-01 -4.9445E-01
 -2.0805E-01 -1.8321E-01
 Non-SCF case, kpt   13 (  0.35294  0.00000  0.00000), residuals and eigenvalues=
  8.93E-13  3.61E-13  3.54E-13  2.91E-13  4.95E-13  3.72E-13  2.09E-06  2.06E-04
 -2.2899E+00 -1.3386E+00 -1.3375E+00 -1.3306E+00 -4.9607E-01 -4.9032E-01
 -2.1635E-01 -1.9695E-01
 Non-SCF case, kpt   14 (  0.38235  0.00000  0.00000), residuals and eigenvalues=
  6.57E-13  5.79E-13  2.97E-13  2.33E-13  9.69E-13  6.16E-13  5.24E-09  1.20E-07
 -2.2898E+00 -1.3395E+00 -1.3373E+00 -1.3308E+00 -4.9017E-01 -4.8656E-01
 -2.2511E-01 -2.0547E-01
 Non-SCF case, kpt   15 (  0.41176  0.00000  0.00000), residuals and eigenvalues=
  6.85E-13  2.74E-13  7.53E-13  3.10E-13  7.35E-13  8.45E-13  2.38E-10  5.42E-08
 -2.2897E+00 -1.3402E+00 -1.3372E+00 -1.3309E+00 -4.8507E-01 -4.8334E-01
 -2.3292E-01 -2.1223E-01
 Non-SCF case, kpt   16 (  0.44118  0.00000  0.00000), residuals and eigenvalues=
  6.23E-13  4.91E-13  5.74E-13  4.02E-13  5.07E-13  4.01E-13  4.90E-09  8.55E-08
 -2.2896E+00 -1.3408E+00 -1.3371E+00 -1.3311E+00 -4.8110E-01 -4.8087E-01
 -2.3901E-01 -2.1737E-01
 Non-SCF case, kpt   17 (  0.47059  0.00000  0.00000), residuals and eigenvalues=
  5.80E-13  2.22E-13  6.62E-13  1.98E-13  7.76E-13  6.40E-13  1.68E-09  5.02E-08
 -2.2896E+00 -1.3411E+00 -1.3370E+00 -1.3311E+00 -4.7932E-01 -4.7856E-01
 -2.4287E-01 -2.2059E-01
 Non-SCF case, kpt   18 (  0.50000  0.00000  0.00000), residuals and eigenvalues=
  3.82E-13  2.60E-13  2.41E-13  3.06E-13  3.18E-13  8.59E-13  1.79E-08  1.58E-07
 -2.2896E+00 -1.3412E+00 -1.3370E+00 -1.3312E+00 -4.7879E-01 -4.7769E-01
 -2.4419E-01 -2.2168E-01
 Non-SCF case, kpt   19 (  0.48333  0.03333  0.00000), residuals and eigenvalues=
  7.26E-13  3.16E-13  6.47E-13  9.39E-13  5.88E-13  9.02E-13  9.04E-11  1.95E-08
 -2.2896E+00 -1.3412E+00 -1.3370E+00 -1.3313E+00 -4.7862E-01 -4.7748E-01
 -2.4363E-01 -2.2149E-01
 Non-SCF case, kpt   20 (  0.46667  0.06667  0.00000), residuals and eigenvalues=
  8.81E-13  1.96E-13  8.26E-13  6.97E-13  3.71E-13  9.82E-13  8.96E-10  9.78E-09
 -2.2896E+00 -1.3410E+00 -1.3370E+00 -1.3316E+00 -4.7814E-01 -4.7687E-01
 -2.4197E-01 -2.2094E-01
 Non-SCF case, kpt   21 (  0.45000  0.10000  0.00000), residuals and eigenvalues=
  5.85E-13  3.13E-13  3.55E-13  5.39E-13  9.71E-13  4.40E-13  3.18E-10  2.50E-08
 -2.2895E+00 -1.3408E+00 -1.3370E+00 -1.3320E+00 -4.7736E-01 -4.7588E-01
 -2.3924E-01 -2.2010E-01
 Non-SCF case, kpt   22 (  0.43333  0.13333  0.00000), residuals and eigenvalues=
  7.25E-13  6.52E-13  3.23E-13  4.60E-13  7.29E-13  5.60E-13  6.03E-09  3.74E-08
 -2.2895E+00 -1.3405E+00 -1.3369E+00 -1.3326E+00 -4.7635E-01 -4.7458E-01
 -2.3551E-01 -2.1908E-01
 Non-SCF case, kpt   23 (  0.41667  0.16667  0.00000), residuals and eigenvalues=
  8.82E-13  4.62E-13  7.17E-13  5.90E-13  9.79E-13  4.68E-13  9.75E-10  1.25E-08
 -2.2895E+00 -1.3401E+00 -1.3369E+00 -1.3333E+00 -4.7518E-01 -4.7306E-01
 -2.3084E-01 -2.1805E-01
 Non-SCF case, kpt   24 (  0.40000  0.20000  0.00000), residuals and eigenvalues=
  7.53E-13  9.40E-13  6.73E-13  9.61E-13  7.59E-13  7.75E-13  4.13E-09  9.38E-08
 -2.2895E+00 -1.3397E+00 -1.3368E+00 -1.3341E+00 -4.7394E-01 -4.7144E-01
 -2.2537E-01 -2.1723E-01
 Non-SCF case, kpt   25 (  0.38333  0.23333  0.00000), residuals and eigenvalues=
  3.71E-13  5.61E-13  4.31E-13  2.41E-13  9.13E-13  9.73E-13  6.04E-09  3.78E-09
 -2.2894E+00 -1.3391E+00 -1.3368E+00 -1.3349E+00 -4.7275E-01 -4.6986E-01
 -2.1927E-01 -2.1679E-01
 Non-SCF case, kpt   26 (  0.36667  0.26667  0.00000), residuals and eigenvalues=
  6.66E-13  3.33E-13  9.51E-13  9.67E-13  9.60E-13  9.91E-13  1.20E-08  4.43E-09
 -2.2894E+00 -1.3386E+00 -1.3367E+00 -1.3357E+00 -4.7173E-01 -4.6849E-01
 -2.1680E-01 -2.1287E-01
 Non-SCF case, kpt   27 (  0.35000  0.30000  0.00000), residuals and eigenvalues=
  6.93E-13  2.86E-13  4.77E-13  8.64E-13  4.39E-13  8.90E-13  2.85E-09  3.24E-07
 -2.2894E+00 -1.3380E+00 -1.3367E+00 -1.3365E+00 -4.7103E-01 -4.6752E-01
 -2.1709E-01 -2.0705E-01
 Non-SCF case, kpt   28 (  0.33333  0.33333  0.00000), residuals and eigenvalues=
  7.15E-13  4.03E-13  3.80E-13  3.82E-13  8.71E-13  5.41E-13  3.95E-09  2.42E-07
 -2.2894E+00 -1.3376E+00 -1.3369E+00 -1.3367E+00 -4.7076E-01 -4.6715E-01
 -2.1729E-01 -2.0432E-01
 Non-SCF case, kpt   29 (  0.35000  0.35000  0.02500), residuals and eigenvalues=
  8.59E-13  4.94E-13  2.92E-13  9.71E-13  5.96E-13  7.81E-13  7.64E-08  2.26E-07
 -2.2894E+00 -1.3380E+00 -1.3367E+00 -1.3365E+00 -4.7103E-01 -4.6752E-01
 -2.1709E-01 -2.0705E-01
 Non-SCF case, kpt   30 (  0.36667  0.36667  0.05000), residuals and eigenvalues=
  5.04E-13  3.86E-13  9.74E-13  5.76E-13  9.25E-13  2.23E-13  7.33E-09  8.32E-08
 -2.2894E+00 -1.3386E+00 -1.3367E+00 -1.3357E+00 -4.7173E-01 -4.6849E-01
 -2.1680E-01 -2.1287E-01
 Non-SCF case, kpt   31 (  0.38333  0.38333  0.07500), residuals and eigenvalues=
  3.88E-13  9.79E-13  2.12E-13  8.40E-13  8.17E-13  8.06E-13  1.72E-09  7.00E-09
 -2.2894E+00 -1.3391E+00 -1.3368E+00 -1.3349E+00 -4.7275E-01 -4.6986E-01
 -2.1927E-01 -2.1679E-01
 Non-SCF case, kpt   32 (  0.40000  0.40000  0.10000), residuals and eigenvalues=
  3.19E-13  5.97E-13  5.20E-13  8.33E-13  5.17E-13  7.78E-13  2.35E-08  6.34E-08
 -2.2895E+00 -1.3397E+00 -1.3368E+00 -1.3341E+00 -4.7394E-01 -4.7144E-01
 -2.2537E-01 -2.1723E-01
 Non-SCF case, kpt   33 (  0.41667  0.41667  0.12500), residuals and eigenvalues=
  8.73E-13  2.35E-13  4.08E-13  3.19E-13  8.07E-13  9.13E-13  2.54E-10  2.14E-08
 -2.2895E+00 -1.3401E+00 -1.3369E+00 -1.3333E+00 -4.7518E-01 -4.7306E-01
 -2.3084E-01 -2.1805E-01
 Non-SCF case, kpt   34 (  0.43333  0.43333  0.15000), residuals and eigenvalues=
  8.03E-13  9.11E-13  5.95E-13  2.84E-13  5.10E-13  5.32E-13  2.87E-10  9.84E-09
 -2.2895E+00 -1.3405E+00 -1.3369E+00 -1.3326E+00 -4.7635E-01 -4.7458E-01
 -2.3551E-01 -2.1908E-01
 Non-SCF case, kpt   35 (  0.45000  0.45000  0.17500), residuals and eigenvalues=
  6.46E-13  2.39E-13  8.97E-13  4.16E-13  6.77E-13  4.19E-13  4.20E-10  3.36E-08
 -2.2895E+00 -1.3408E+00 -1.3370E+00 -1.3320E+00 -4.7736E-01 -4.7588E-01
 -2.3924E-01 -2.2010E-01
 Non-SCF case, kpt   36 (  0.46667  0.46667  0.20000), residuals and eigenvalues=
  7.47E-13  3.16E-13  7.12E-13  4.03E-13  6.51E-13  5.13E-13  1.95E-09  2.24E-08
 -2.2896E+00 -1.3410E+00 -1.3370E+00 -1.3315E+00 -4.7814E-01 -4.7687E-01
 -2.4197E-01 -2.2094E-01
 Non-SCF case, kpt   37 (  0.48333  0.48333  0.22500), residuals and eigenvalues=
  7.37E-13  3.34E-13  1.99E-13  2.00E-13  6.36E-13  5.30E-13  2.58E-09  1.56E-08
 -2.2896E+00 -1.3412E+00 -1.3370E+00 -1.3313E+00 -4.7862E-01 -4.7748E-01
 -2.4363E-01 -2.2149E-01
 Non-SCF case, kpt   38 (  0.50000  0.50000  0.25000), residuals and eigenvalues=
  6.43E-13  2.40E-13  4.38E-13  8.89E-13  9.79E-13  6.30E-13  9.31E-10  3.66E-08
 -2.2896E+00 -1.3412E+00 -1.3370E+00 -1.3312E+00 -4.7879E-01 -4.7769E-01
 -2.4419E-01 -2.2169E-01
 Non-SCF case, kpt   39 (  0.51667  0.51667  0.27500), residuals and eigenvalues=
  5.46E-13  2.62E-13  6.36E-13  3.04E-13  8.62E-13  5.02E-13  1.66E-09  3.26E-08
 -2.2896E+00 -1.3412E+00 -1.3370E+00 -1.3313E+00 -4.7862E-01 -4.7748E-01
 -2.4363E-01 -2.2149E-01
 Non-SCF case, kpt   40 (  0.53333  0.53333  0.30000), residuals and eigenvalues=
  8.86E-13  5.56E-13  2.41E-13  4.62E-13  7.12E-13  7.42E-13  1.41E-09  5.13E-08
 -2.2896E+00 -1.3410E+00 -1.3370E+00 -1.3315E+00 -4.7814E-01 -4.7687E-01
 -2.4197E-01 -2.2094E-01
 Non-SCF case, kpt   41 (  0.55000  0.55000  0.32500), residuals and eigenvalues=
  9.28E-13  1.93E-13  2.33E-13  8.95E-13  5.48E-13  5.46E-13  9.25E-10  5.13E-08
 -2.2895E+00 -1.3408E+00 -1.3370E+00 -1.3320E+00 -4.7736E-01 -4.7588E-01
 -2.3924E-01 -2.2010E-01
 Non-SCF case, kpt   42 (  0.56667  0.56667  0.35000), residuals and eigenvalues=
  7.46E-13  4.08E-13  8.89E-13  5.30E-13  8.14E-13  4.98E-13  1.72E-10  7.44E-09
 -2.2895E+00 -1.3405E+00 -1.3369E+00 -1.3326E+00 -4.7635E-01 -4.7458E-01
 -2.3551E-01 -2.1908E-01
 Non-SCF case, kpt   43 (  0.58333  0.58333  0.37500), residuals and eigenvalues=
  3.74E-13  4.00E-13  9.66E-13  8.28E-13  6.19E-13  7.65E-13  2.26E-09  8.70E-09
 -2.2895E+00 -1.3401E+00 -1.3369E+00 -1.3333E+00 -4.7518E-01 -4.7306E-01
 -2.3084E-01 -2.1805E-01
 Non-SCF case, kpt   44 (  0.60000  0.60000  0.40000), residuals and eigenvalues=
  9.45E-13  2.46E-13  5.56E-13  6.71E-13  8.69E-13  9.23E-13  3.25E-09  9.65E-10
 -2.2895E+00 -1.3397E+00 -1.3368E+00 -1.3340E+00 -4.7394E-01 -4.7144E-01
 -2.2537E-01 -2.1723E-01
 Non-SCF case, kpt   45 (  0.61667  0.61667  0.42500), residuals and eigenvalues=
  4.71E-13  4.61E-13  5.78E-13  2.70E-13  4.20E-13  8.82E-13  2.11E-08  1.06E-08
 -2.2894E+00 -1.3391E+00 -1.3368E+00 -1.3349E+00 -4.7275E-01 -4.6986E-01
 -2.1927E-01 -2.1679E-01
 Non-SCF case, kpt   46 (  0.63333  0.63333  0.45000), residuals and eigenvalues=
  3.72E-13  4.11E-13  6.27E-13  9.86E-13  5.70E-13  9.40E-13  1.47E-09  1.20E-08
 -2.2894E+00 -1.3386E+00 -1.3368E+00 -1.3357E+00 -4.7173E-01 -4.6849E-01
 -2.1680E-01 -2.1287E-01
 Non-SCF case, kpt   47 (  0.65000  0.65000  0.47500), residuals and eigenvalues=
  7.04E-13  6.81E-13  6.23E-13  4.01E-13  2.06E-13  6.44E-13  2.27E-09  1.18E-07
 -2.2894E+00 -1.3380E+00 -1.3367E+00 -1.3365E+00 -4.7103E-01 -4.6752E-01
 -2.1709E-01 -2.0705E-01
 Non-SCF case, kpt   48 (  0.66667  0.66667  0.50000), residuals and eigenvalues=
  6.32E-13  2.43E-13  2.63E-13  6.81E-13  8.82E-13  7.76E-13  1.89E-08  1.20E-08
 -2.2894E+00 -1.3376E+00 -1.3369E+00 -1.3367E+00 -4.7076E-01 -4.6715E-01
 -2.1729E-01 -2.0432E-01
 Non-SCF case, kpt   49 (  0.68333  0.68333  0.52500), residuals and eigenvalues=
  7.33E-13  3.11E-13  7.85E-13  3.38E-13  8.71E-13  7.17E-13  3.66E-08  4.23E-07
 -2.2894E+00 -1.3380E+00 -1.3367E+00 -1.3365E+00 -4.7106E-01 -4.6758E-01
 -2.1694E-01 -2.0665E-01
 Non-SCF case, kpt   50 (  0.70000  0.70000  0.55000), residuals and eigenvalues=
  7.88E-13  8.39E-13  6.53E-13  7.58E-13  6.00E-13  4.92E-13  1.49E-08  3.69E-08
 -2.2894E+00 -1.3384E+00 -1.3368E+00 -1.3358E+00 -4.7201E-01 -4.6895E-01
 -2.1560E-01 -2.1057E-01
 Non-SCF case, kpt   51 (  0.71667  0.71667  0.57500), residuals and eigenvalues=
  7.80E-13  8.16E-13  2.79E-13  1.89E-13  2.16E-13  9.47E-13  6.52E-09  2.65E-09
 -2.2895E+00 -1.3387E+00 -1.3368E+00 -1.3351E+00 -4.7365E-01 -4.7136E-01
 -2.1341E-01 -2.1296E-01
 Non-SCF case, kpt   52 (  0.73333  0.73333  0.60000), residuals and eigenvalues=
  3.73E-13  5.25E-13  3.56E-13  8.16E-13  8.88E-13  7.19E-13  2.36E-09  2.32E-08
 -2.2895E+00 -1.3388E+00 -1.3369E+00 -1.3344E+00 -4.7597E-01 -4.7482E-01
 -2.1438E-01 -2.0886E-01
 Non-SCF case, kpt   53 (  0.75000  0.75000  0.62500), residuals and eigenvalues=
  8.47E-13  9.16E-13  2.31E-13  8.22E-13  6.48E-13  5.57E-13  1.79E-08  3.32E-07
 -2.2896E+00 -1.3388E+00 -1.3370E+00 -1.3337E+00 -4.7926E-01 -4.7893E-01
 -2.1331E-01 -2.0323E-01
 Non-SCF case, kpt   54 (  0.76667  0.76667  0.65000), residuals and eigenvalues=
  6.37E-13  3.43E-13  3.69E-13  2.65E-13  3.83E-13  9.27E-13  2.89E-08  2.27E-06
 -2.2897E+00 -1.3385E+00 -1.3371E+00 -1.3330E+00 -4.8455E-01 -4.8243E-01
 -2.1034E-01 -1.9619E-01
 Non-SCF case, kpt   55 (  0.78333  0.78333  0.67500), residuals and eigenvalues=
  8.53E-13  8.81E-13  4.87E-13  9.98E-13  7.12E-13  5.33E-13  2.44E-07  8.23E-06
 -2.2898E+00 -1.3380E+00 -1.3373E+00 -1.3324E+00 -4.9048E-01 -4.8635E-01
 -2.0581E-01 -1.8798E-01
 Non-SCF case, kpt   56 (  0.80000  0.80000  0.70000), residuals and eigenvalues=
  7.72E-13  4.01E-13  7.00E-13  3.08E-13  2.61E-13  3.27E-13  5.78E-07  2.13E-05
 -2.2899E+00 -1.3375E+00 -1.3374E+00 -1.3318E+00 -4.9684E-01 -4.9056E-01
 -2.0053E-01 -1.7845E-01
 Non-SCF case, kpt   57 (  0.81667  0.81667  0.72500), residuals and eigenvalues=
  7.14E-13  6.27E-13  6.62E-13  3.51E-13  3.25E-13  8.13E-13  4.36E-06  8.95E-06
 -2.2900E+00 -1.3377E+00 -1.3366E+00 -1.3312E+00 -5.0343E-01 -4.9493E-01
 -1.9662E-01 -1.7764E-01
 Non-SCF case, kpt   58 (  0.83333  0.83333  0.75000), residuals and eigenvalues=
  7.73E-13  7.80E-13  3.83E-13  4.12E-13  8.36E-13  9.03E-13  3.09E-08  4.59E-06
 -2.2901E+00 -1.3379E+00 -1.3357E+00 -1.3307E+00 -5.1004E-01 -4.9933E-01
 -1.9744E-01 -1.7365E-01
 Non-SCF case, kpt   59 (  0.85000  0.85000  0.77500), residuals and eigenvalues=
  4.60E-13  6.27E-13  5.80E-13  8.21E-13  5.64E-13  1.97E-13  1.22E-08  6.67E-06
 -2.2902E+00 -1.3381E+00 -1.3347E+00 -1.3302E+00 -5.1648E-01 -5.0363E-01
 -2.0201E-01 -1.6537E-01
 Non-SCF case, kpt   60 (  0.86667  0.86667  0.80000), residuals and eigenvalues=
  5.77E-13  2.64E-13  9.22E-13  3.56E-13  7.32E-13  4.26E-13  9.61E-10  2.57E-05
 -2.2904E+00 -1.3383E+00 -1.3337E+00 -1.3297E+00 -5.2262E-01 -5.0774E-01
 -2.0793E-01 -1.5746E-01
 Non-SCF case, kpt   61 (  0.88333  0.88333  0.82500), residuals and eigenvalues=
  6.74E-13  6.45E-13  7.78E-13  4.91E-13  6.76E-13  3.34E-13  9.16E-11  3.25E-06
 -2.2905E+00 -1.3385E+00 -1.3326E+00 -1.3293E+00 -5.2831E-01 -5.1155E-01
 -2.1420E-01 -1.5608E-01
 Non-SCF case, kpt   62 (  0.90000  0.90000  0.85000), residuals and eigenvalues=
  8.97E-13  9.23E-13  1.95E-13  8.46E-13  5.85E-13  2.53E-13  1.69E-12  9.18E-06
 -2.2906E+00 -1.3387E+00 -1.3315E+00 -1.3290E+00 -5.3344E-01 -5.1500E-01
 -2.2030E-01 -1.5268E-01
 Non-SCF case, kpt   63 (  0.91667  0.91667  0.87500), residuals and eigenvalues=
  6.39E-13  1.91E-13  6.25E-13  8.51E-13  9.87E-13  2.66E-13  9.52E-12  2.76E-06
 -2.2907E+00 -1.3389E+00 -1.3306E+00 -1.3287E+00 -5.3793E-01 -5.1802E-01
 -2.2591E-01 -1.4955E-01
 Non-SCF case, kpt   64 (  0.93333  0.93333  0.90000), residuals and eigenvalues=
  6.00E-13  9.29E-13  3.23E-13  2.03E-13  7.11E-13  2.99E-13  2.43E-12  2.59E-07
 -2.2908E+00 -1.3391E+00 -1.3297E+00 -1.3285E+00 -5.4170E-01 -5.2056E-01
 -2.3081E-01 -1.4672E-01
 Non-SCF case, kpt   65 (  0.95000  0.95000  0.92500), residuals and eigenvalues=
  5.27E-13  9.45E-13  2.35E-13  3.03E-13  9.38E-13  7.75E-13  7.39E-12  1.41E-07
 -2.2909E+00 -1.3392E+00 -1.3290E+00 -1.3283E+00 -5.4469E-01 -5.2257E-01
 -2.3480E-01 -1.4438E-01
 Non-SCF case, kpt   66 (  0.96667  0.96667  0.95000), residuals and eigenvalues=
  5.70E-13  6.74E-13  7.51E-13  8.41E-13  9.63E-13  5.55E-13  1.51E-12  5.21E-09
 -2.2910E+00 -1.3393E+00 -1.3285E+00 -1.3282E+00 -5.4686E-01 -5.2403E-01
 -2.3775E-01 -1.4263E-01
 Non-SCF case, kpt   67 (  0.98333  0.98333  0.97500), residuals and eigenvalues=
  7.99E-13  3.33E-13  3.27E-13  9.44E-13  8.53E-13  7.41E-13  1.40E-12  3.14E-08
 -2.2910E+00 -1.3393E+00 -1.3282E+00 -1.3281E+00 -5.4817E-01 -5.2492E-01
 -2.3955E-01 -1.4156E-01
 Non-SCF case, kpt   68 (  1.00000  1.00000  1.00000), residuals and eigenvalues=
  5.45E-13  3.15E-13  7.68E-13  8.44E-13  7.18E-13  6.56E-13  1.03E-12  1.68E-07
 -2.2910E+00 -1.3394E+00 -1.3281E+00 -1.3281E+00 -5.4861E-01 -5.2521E-01
 -2.4016E-01 -1.4119E-01
 

--- !ResultsGS
iteration_state: {dtset: 2, itime: 2, icycle: 1, }
comment   : Summary of ground state results
lattice_vectors:
- [  2.9763187,  -5.1551351,   0.0000000, ]
- [  2.9763187,   5.1551351,   0.0000000, ]
- [  0.0000000,   0.0000000,  37.7945227, ]
lattice_lengths: [   5.95264,    5.95264,   37.79452, ]
lattice_angles: [ 90.000,  90.000, 120.000, ] # degrees, (23, 13, 12)
lattice_volume:   1.1597873E+03
convergence: {deltae:  0.000E+00, res2:  0.000E+00, residm:  9.981E-13, diffor:  0.000E+00, }
etotal    :  -9.23435497E+01
entropy   :   0.00000000E+00
fermie    :  -7.48922881E-02
cartesian_stress_tensor: null
pressure_GPa: null
xred      :
- [  3.3333E-01,   6.6667E-01,   0.0000E+00, Mo]
- [  6.6667E-01,   3.3333E-01,  -9.1944E-02,  S]
- [  6.6667E-01,   3.3333E-01,   9.1944E-02,  S]
cartesian_forces: null
force_length_stats: {min: null, max: null, mean: null, }
...

 Integrated electronic density in atomic spheres:
 ------------------------------------------------
 Atom  Sphere_radius  Integrated_density
    1        2.00000         10.42349198
    2        2.00000          3.79831482
    3        2.00000          3.79833192
 
---OUTPUT-----------------------------------------------------------------------
 
 Cartesian coordinates (xcart) [bohr]
  2.97631865929489E+00  1.71837837912920E+00  0.00000000000000E+00
  2.97631865929489E+00 -1.71837837912920E+00 -3.47498847295358E+00
  2.97631865929489E+00 -1.71837837912920E+00  3.47498847295358E+00
 Reduced coordinates (xred)
  3.33333333333333E-01  6.66666666666667E-01  0.00000000000000E+00
  6.66666666666667E-01  3.33333333333333E-01 -9.19442350000000E-02
  6.66666666666667E-01  3.33333333333333E-01  9.19442350000000E-02
 Cartesian forces (fcart) [Ha/bohr]; max,rms= 1.00000+100 1.00000+100 (free atoms)
  9.99999999990000E+99  9.99999999990000E+99  9.99999999990000E+99
  9.99999999990000E+99  9.99999999990000E+99  9.99999999990000E+99
  9.99999999990000E+99  9.99999999990000E+99  9.99999999990000E+99
 Gradient of E wrt nuclear positions in reduced coordinates (gred)
  2.17881647807093+100 -8.13145379660118+100 -3.77945226573349+101
  2.17881647807093+100 -8.13145379660118+100 -3.77945226573349+101
  2.17881647807093+100 -8.13145379660118+100 -3.77945226573349+101
 Total energy (etotal) [Ha]= -9.23435497077835E+01
 
 Difference of energy with previous step (new-old):
           Absolute (Ha)= 0.00000E+00
           Relative     = 0.00000E+00
 
--- Iteration: ( 3/10) Internal Cycle: (1/1)
--------------------------------------------------------------------------------
 
---SELF-CONSISTENT-FIELD CONVERGENCE--------------------------------------------
