
.Version 9.10.3 of ABINIT 
.(MPI version, prepared for a x86_64_linux_intel2021.6 computer) 

.Copyright (C) 1998-2022 ABINIT group . 
 ABINIT comes with ABSOLUTELY NO WARRANTY.
 It is free software, and you are welcome to redistribute it
 under certain conditions (GNU General Public License,
 see ~abinit/COPYING or http://www.gnu.org/copyleft/gpl.txt).

 ABINIT is a project of the Universite Catholique de Louvain,
 Corning Inc. and other collaborators, see ~abinit/doc/developers/contributors.txt .
 Please read https://docs.abinit.org/theory/acknowledgments for suggested
 acknowledgments of the ABINIT effort.
 For more information, see https://www.abinit.org .

.Starting date : Mon  5 May 2025.
- ( at 17h09 )
  
- input  file    -> mos2.abi
- output file    -> mos2.abo
- root for input  files -> mos2i
- root for output files -> mos2o
 
 
 DATASET    1 : space group P1 (#  1); Bravais aP (primitive triclinic)
================================================================================
 Values of the parameters that define the memory need for DATASET  1.
     intxc =       0    ionmov =       0      iscf =       7    lmnmax =       6
     lnmax =       6     mgfft =     120  mpssoang =       3    mqgrid =    5894
     natom =       3  nloc_mem =       1    nspden =       1   nspinor =       1
    nsppol =       1      nsym =       1    n1xccc =    2501    ntypat =       2
    occopt =       1   xclevel =       2
-    mband =          14        mffmem =           1         mkmem =           2
       mpw =        2310          nfft =       48000          nkpt =           2
================================================================================
P This job should need less than                      17.285 Mbytes of memory.
  Rough estimation (10% accuracy) of disk space for files :
_ WF disk file :      0.989 Mbytes ; DEN or POT disk file :      0.368 Mbytes.
================================================================================
 
 
 DATASET    2 : space group P1 (#  1); Bravais aP (primitive triclinic)
================================================================================
 Values of the parameters that define the memory need for DATASET  2.
     intxc =       0    ionmov =       0      iscf =      -2    lmnmax =       6
     lnmax =       6     mgfft =     120  mpssoang =       3    mqgrid =    5894
     natom =       3  nloc_mem =       1    nspden =       1   nspinor =       1
    nsppol =       1      nsym =       1    n1xccc =    2501    ntypat =       2
    occopt =       1   xclevel =       2
-    mband =           8        mffmem =           1         mkmem =          77
       mpw =        2327          nfft =       48000          nkpt =          77
================================================================================
P This job should need less than                      34.412 Mbytes of memory.
  Rough estimation (10% accuracy) of disk space for files :
_ WF disk file :     21.874 Mbytes ; DEN or POT disk file :      0.368 Mbytes.
================================================================================
 
--------------------------------------------------------------------------------
------------- Echo of variables that govern the present computation ------------
--------------------------------------------------------------------------------
-
- outvars: echo of selected default values                                      
-   iomode0 =  0 , fftalg0 =512 , wfoptalg0 =  0
-
- outvars: echo of global parameters not present in the input file              
-  max_nthreads =    0
-
 -outvars: echo values of preprocessed input variables --------
            acell      5.9526373186E+00  5.9526373186E+00  3.7794522658E+01 Bohr
              amu      9.59400000E+01  3.20660000E+01
      chksymbreak           0
             ecut      1.20000000E+01 Hartree
           enunit1          0
           enunit2          1
-          fftalg         512
           getden1          0
           getden2         -1
             iscf1          7
             iscf2         -2
           istwfk1       2    0
           istwfk2       2    0    0    0    0    0    0    0    0    0
                         0    0    0    0    0    0    0    0    0    0
                         0    0    0    0    0    0    0    0    0    0
                         3    0    0    0    0    0    0    0    0    0
                         0    0    0    0    0    0    0    0    0    0
                       outvar_i_n : Printing only first  50 k-points.
              ixc          11
           jdtset        1    2
              kpt1     0.00000000E+00  0.00000000E+00  0.00000000E+00
                       3.33333333E-01  0.00000000E+00  0.00000000E+00
              kpt2     0.00000000E+00  0.00000000E+00  0.00000000E+00
                       1.66666667E-02  1.66666667E-02  0.00000000E+00
                       3.33333333E-02  3.33333333E-02  0.00000000E+00
                       5.00000000E-02  5.00000000E-02  0.00000000E+00
                       6.66666667E-02  6.66666667E-02  0.00000000E+00
                       8.33333333E-02  8.33333333E-02  0.00000000E+00
                       1.00000000E-01  1.00000000E-01  0.00000000E+00
                       1.16666667E-01  1.16666667E-01  0.00000000E+00
                       1.33333333E-01  1.33333333E-01  0.00000000E+00
                       1.50000000E-01  1.50000000E-01  0.00000000E+00
                       1.66666667E-01  1.66666667E-01  0.00000000E+00
                       1.83333333E-01  1.83333333E-01  0.00000000E+00
                       2.00000000E-01  2.00000000E-01  0.00000000E+00
                       2.16666667E-01  2.16666667E-01  0.00000000E+00
                       2.33333333E-01  2.33333333E-01  0.00000000E+00
                       2.50000000E-01  2.50000000E-01  0.00000000E+00
                       2.66666667E-01  2.66666667E-01  0.00000000E+00
                       2.83333333E-01  2.83333333E-01  0.00000000E+00
                       3.00000000E-01  3.00000000E-01  0.00000000E+00
                       3.16666667E-01  3.16666667E-01  0.00000000E+00
                       3.33333333E-01  3.33333333E-01  0.00000000E+00
                       3.50000000E-01  3.00000000E-01  0.00000000E+00
                       3.66666667E-01  2.66666667E-01  0.00000000E+00
                       3.83333333E-01  2.33333333E-01  0.00000000E+00
                       4.00000000E-01  2.00000000E-01  0.00000000E+00
                       4.16666667E-01  1.66666667E-01  0.00000000E+00
                       4.33333333E-01  1.33333333E-01  0.00000000E+00
                       4.50000000E-01  1.00000000E-01  0.00000000E+00
                       4.66666667E-01  6.66666667E-02  0.00000000E+00
                       4.83333333E-01  3.33333333E-02  0.00000000E+00
                       5.00000000E-01  0.00000000E+00  0.00000000E+00
                       5.10869565E-01  2.17391304E-02  2.17391304E-02
                       5.21739130E-01  4.34782609E-02  4.34782609E-02
                       5.32608696E-01  6.52173913E-02  6.52173913E-02
                       5.43478261E-01  8.69565217E-02  8.69565217E-02
                       5.54347826E-01  1.08695652E-01  1.08695652E-01
                       5.65217391E-01  1.30434783E-01  1.30434783E-01
                       5.76086957E-01  1.52173913E-01  1.52173913E-01
                       5.86956522E-01  1.73913043E-01  1.73913043E-01
                       5.97826087E-01  1.95652174E-01  1.95652174E-01
                       6.08695652E-01  2.17391304E-01  2.17391304E-01
                       6.19565217E-01  2.39130435E-01  2.39130435E-01
                       6.30434783E-01  2.60869565E-01  2.60869565E-01
                       6.41304348E-01  2.82608696E-01  2.82608696E-01
                       6.52173913E-01  3.04347826E-01  3.04347826E-01
                       6.63043478E-01  3.26086957E-01  3.26086957E-01
                       6.73913043E-01  3.47826087E-01  3.47826087E-01
                       6.84782609E-01  3.69565217E-01  3.69565217E-01
                       6.95652174E-01  3.91304348E-01  3.91304348E-01
                       7.06521739E-01  4.13043478E-01  4.13043478E-01
                       outvar_i_n : Printing only first  50 k-points.
           kptopt1          1
           kptopt2         -3
         kptrlatt        3    0    0      0    1    0      0    0    1
          kptrlen1     5.95263732E+00
          kptrlen2     3.00000000E+01
P           mkmem1          2
P           mkmem2         77
            natom           3
            nband1         14
            nband2          8
           nbdbuf1          0
           nbdbuf2          2
           ndtset           2
           ndivsm1          0
           ndivsm2         10
            ngfft          20      20     120
             nkpt1          2
             nkpt2         77
            nstep          10
             nsym           1
           ntypat           2
              occ      2.000000  2.000000  2.000000  2.000000  2.000000  2.000000
                       2.000000  2.000000  2.000000  2.000000  2.000000  2.000000
                       2.000000  0.000000
            rprim      5.0000000000E-01 -8.6602540378E-01  0.0000000000E+00
                       5.0000000000E-01  8.6602540378E-01  0.0000000000E+00
                       0.0000000000E+00  0.0000000000E+00  1.0000000000E+00
           shiftk1     0.00000000E+00  0.00000000E+00  0.00000000E+00
           shiftk2     5.00000000E-01  5.00000000E-01  5.00000000E-01
          spgroup           1
           toldfe1     1.00000000E-06 Hartree
           toldfe2     0.00000000E+00 Hartree
           tolwfr1     0.00000000E+00
           tolwfr2     1.00000000E-12
            typat      1  2  2
              wtk1       0.33333    0.66667
              wtk2       1.00000    1.00000    1.00000    1.00000    1.00000    1.00000
                         1.00000    1.00000    1.00000    1.00000    1.00000    1.00000
                         1.00000    1.00000    1.00000    1.00000    1.00000    1.00000
                         1.00000    1.00000    1.00000    1.00000    1.00000    1.00000
                         1.00000    1.00000    1.00000    1.00000    1.00000    1.00000
                         1.00000    1.00000    1.00000    1.00000    1.00000    1.00000
                         1.00000    1.00000    1.00000    1.00000    1.00000    1.00000
                         1.00000    1.00000    1.00000    1.00000    1.00000    1.00000
                         1.00000    1.00000
                       outvars : Printing only first  50 k-points.
           xangst      1.5750000000E+00  9.0932667397E-01  0.0000000000E+00
                       1.5750000000E+00 -9.0932667397E-01 -1.8388847000E+00
                       1.5750000000E+00 -9.0932667397E-01  1.8388847000E+00
            xcart      2.9763186593E+00  1.7183783791E+00  0.0000000000E+00
                       2.9763186593E+00 -1.7183783791E+00 -3.4749884730E+00
                       2.9763186593E+00 -1.7183783791E+00  3.4749884730E+00
             xred      3.3333333333E-01  6.6666666667E-01  0.0000000000E+00
                       6.6666666667E-01  3.3333333333E-01 -9.1944235000E-02
                       6.6666666667E-01  3.3333333333E-01  9.1944235000E-02
            znucl       42.00000   16.00000
 
================================================================================
 
 chkinp: Checking input parameters for consistency, jdtset=   1.
 
 chkinp: Checking input parameters for consistency, jdtset=   2.
 
================================================================================
== DATASET  1 ==================================================================
-   mpi_nproc: 1, omp_nthreads: -1 (-1 if OMP is not activated)
 

--- !DatasetInfo
iteration_state: {dtset: 1, }
dimensions: {natom: 3, nkpt: 2, mband: 14, nsppol: 1, nspinor: 1, nspden: 1, mpw: 2310, }
cutoff_energies: {ecut:  12.0, pawecutdg:  -1.0, }
electrons: {nelect:   2.60000000E+01, charge:   0.00000000E+00, occopt:   1.00000000E+00, tsmear:   1.00000000E-02, }
meta: {optdriver: 0, ionmov: 0, optcell: 0, iscf: 7, paral_kgb: 0, }
...

 Exchange-correlation functional for the present dataset will be:
  GGA: Perdew-Burke-Ernzerhof functional - ixc=11
 Citation for XC functional:
  J.P.Perdew, K.Burke, M.Ernzerhof, PRL 77, 3865 (1996)
 
 Real(R)+Recip(G) space primitive vectors, cartesian coordinates (Bohr,Bohr^-1):
 R(1)=  2.9763187 -5.1551351  0.0000000  G(1)=  0.1679928 -0.0969907  0.0000000
 R(2)=  2.9763187  5.1551351  0.0000000  G(2)=  0.1679928  0.0969907  0.0000000
 R(3)=  0.0000000  0.0000000 37.7945227  G(3)=  0.0000000  0.0000000  0.0264589
 Unit cell volume ucvol=  1.1597873E+03 bohr^3
 Angles (23,13,12)=  9.00000000E+01  9.00000000E+01  1.20000000E+02 degrees
 
 getcut: wavevector=  0.0000  0.0000  0.0000  ngfft=  20  20 120
         ecut(hartree)=     12.000   => boxcut(ratio)=   2.03609
 
--- Pseudopotential description ------------------------------------------------
- pspini: atom type   1  psp file is ./persudo/Mo.psp8
- pspatm: opening atomic psp file    ./persudo/Mo.psp8
- Mo    ONCVPSP-3.2.3.1  r_core=   1.45541   1.45541   1.35488
- 42.00000  14.00000    170510                znucl, zion, pspdat
    8   11    2    4       600   0.00000      pspcod,pspxc,lmax,lloc,mmax,r2well
    5.99000000000000    3.00000000000000    0.00000000000000   rchrg,fchrg,qchrg
     nproj     2     2     2
     extension_switch     1
  pspatm : epsatm=   15.95693586
         --- l  ekb(1:nproj) -->
             0   13.833287    1.350687
             1    8.015347    1.134034
             2    2.765699    0.969071
 pspatm: atomic psp has been read  and splines computed
 
- pspini: atom type   2  psp file is ./persudo/S.psp8
- pspatm: opening atomic psp file    ./persudo/S.psp8
- S     ONCVPSP-4.0.1  r_core=   1.45687   1.45687   1.45687
- 16.00000   6.00000    220131                znucl, zion, pspdat
    8   11    2    4       600   0.00000      pspcod,pspxc,lmax,lloc,mmax,r2well
    5.99000000000000    6.00000000000000    0.00000000000000   rchrg,fchrg,qchrg
     nproj     2     2     2
     extension_switch     1
  pspatm : epsatm=    9.04179351
         --- l  ekb(1:nproj) -->
             0    6.774234    0.542270
             1    3.022426    0.737017
             2   -5.033160   -1.531047
 pspatm: atomic psp has been read  and splines computed
 
   8.85053595E+02                                ecore*ucvol(ha*bohr**3)
--------------------------------------------------------------------------------
 
_setup2: Arith. and geom. avg. npw (full set) are    2315.667    2315.653
 
================================================================================

--- !BeginCycle
iteration_state: {dtset: 1, }
solver: {iscf: 7, nstep: 10, nline: 4, wfoptalg: 0, }
tolerances: {toldfe: 1.00E-06, }
...
 
     iter   Etot(hartree)      deltaE(h)  residm     vres2
 ETOT  1  -90.319512161780    -9.032E+01 5.713E-02 1.383E+04
 ETOT  2  -85.471212285142     4.848E+00 7.930E-03 2.895E+04
 ETOT  3  -91.694414720948    -6.223E+00 4.579E-02 2.836E+02
 ETOT  4  -91.748226875655    -5.381E-02 2.051E-03 5.455E+01
 ETOT  5  -91.749035376791    -8.085E-04 5.269E-04 4.908E+01
 ETOT  6  -91.751488542873    -2.453E-03 5.252E-04 1.813E+01
 ETOT  7  -91.752111061671    -6.225E-04 2.465E-04 7.951E+00
 ETOT  8  -91.752197449180    -8.639E-05 2.689E-04 5.946E+00
 ETOT  9  -91.752240881417    -4.343E-05 1.345E-04 4.458E+00
 ETOT 10  -91.752283410453    -4.253E-05 1.287E-04 3.069E+00
 
 Cartesian components of stress tensor (hartree/bohr^3)
  sigma(1 1)=  6.74511131E-04  sigma(3 2)=  5.83279251E-08
  sigma(2 2)=  5.76651759E-04  sigma(3 1)=  3.40441120E-08
  sigma(3 3)=  1.17968232E-03  sigma(2 1)= -8.47801429E-05
 
 
 scprqt:  WARNING -
  nstep=   10 was not enough SCF cycles to converge;
  maximum energy difference=  4.253E-05 exceeds toldfe=  1.000E-06
 

--- !ResultsGS
iteration_state: {dtset: 1, }
comment   : Summary of ground state results
lattice_vectors:
- [  2.9763187,  -5.1551351,   0.0000000, ]
- [  2.9763187,   5.1551351,   0.0000000, ]
- [  0.0000000,   0.0000000,  37.7945227, ]
lattice_lengths: [   5.95264,    5.95264,   37.79452, ]
lattice_angles: [ 90.000,  90.000, 120.000, ] # degrees, (23, 13, 12)
lattice_volume:   1.1597873E+03
convergence: {deltae: -4.253E-05, res2:  3.069E+00, residm:  1.287E-04, diffor: null, }
etotal    :  -9.17522834E+01
entropy   :   0.00000000E+00
fermie    :  -7.78371054E-02
cartesian_stress_tensor: # hartree/bohr^3
- [  6.74511131E-04,  -8.47801429E-05,   3.40441120E-08, ]
- [ -8.47801429E-05,   5.76651759E-04,   5.83279251E-08, ]
- [  3.40441120E-08,   5.83279251E-08,   1.17968232E-03, ]
pressure_GPa:  -2.3839E+01
xred      :
- [  3.3333E-01,   6.6667E-01,   0.0000E+00, Mo]
- [  6.6667E-01,   3.3333E-01,  -9.1944E-02,  S]
- [  6.6667E-01,   3.3333E-01,   9.1944E-02,  S]
cartesian_forces: # hartree/bohr
- [ -1.47955932E-02,   8.53305534E-03,  -1.61455289E-04, ]
- [  7.39892404E-03,  -4.26186283E-03,   7.77655067E-02, ]
- [  7.39666911E-03,  -4.27119251E-03,  -7.76040515E-02, ]
force_length_stats: {min:   1.70806522E-02, max:   7.82328677E-02, mean:   5.77953983E-02, }
...

 Integrated electronic density in atomic spheres:
 ------------------------------------------------
 Atom  Sphere_radius  Integrated_density
    1        2.00000         10.44089670
    2        2.00000          3.84521671
    3        2.00000          3.84512670
================================================================================
 
 ----iterations are completed or convergence reached----
 
 Mean square residual over all n,k,spin=   46.357E-07; max=  12.868E-05
 reduced coordinates (array xred) for    3 atoms
       0.333333333333      0.666666666667      0.000000000000
       0.666666666667      0.333333333333     -0.091944235000
       0.666666666667      0.333333333333      0.091944235000
 rms dE/dt=  1.3845E+00; max dE/dt=  2.9323E+00; dE/dt below (all hartree)
    1       0.088078649606      0.000004037176      0.005406382785
    2      -0.043938838312     -0.000094386239     -2.939805949478
    3      -0.043980222673     -0.000039579101      2.932312338360
 
 cartesian coordinates (angstrom) at end:
    1      1.57500000000000     0.90932667396900     0.00000000000000
    2      1.57500000000000    -0.90932667396900    -1.83888470000000
    3      1.57500000000000    -0.90932667396900     1.83888470000000
 
 cartesian forces (hartree/bohr) at end:
    1     -0.01479559315470     0.00853305534094    -0.00016145528859
    2      0.00739892404212    -0.00426186283164     0.07776550674601
    3      0.00739666911258    -0.00427119250930    -0.07760405145742
 frms,max,avg= 3.7278938E-02 7.7765507E-02  -1.661E-06  9.360E-06  1.841E-05 h/b
 
 cartesian forces (eV/Angstrom) at end:
    1     -0.76081992616749     0.43878731096469    -0.00830236405256
    2      0.38046793964860    -0.21915377984508     3.99886280206889
    3      0.38035198651889    -0.21963353111961    -3.99056043801632
 frms,max,avg= 1.9169599E+00 3.9988628E+00  -8.541E-05  4.813E-04  9.466E-04 e/A
 length scales=  5.952637318590  5.952637318590 37.794522657713 bohr
              =  3.150000000000  3.150000000000 20.000000000000 angstroms
 prteigrs : about to open file mos2o_DS1_EIG
 Fermi (or HOMO) energy (hartree) =  -0.07784   Average Vxc (hartree)=  -0.15626
 Eigenvalues (hartree) for nkpt=   2  k points:
 kpt#   1, nband= 14, wtk=  0.33333, kpt=  0.0000  0.0000  0.0000 (reduced coord)
  -2.23028   -1.36890   -1.36587   -1.34515   -0.56864   -0.54808   -0.24776   -0.15971
  -0.11420   -0.11133   -0.09281   -0.08442   -0.07784    0.01744
 prteigrs : prtvol=0 or 1, do not print more k-points.
 

--- !EnergyTerms
iteration_state     : {dtset: 1, }
comment             : Components of total free energy in Hartree
kinetic             :  2.90582931678298E+01
hartree             :  2.65698600781413E+02
xc                  : -1.64037245690238E+01
Ewald energy        :  1.89573206011761E+02
psp_core            :  7.63117176066322E-01
local_psp           : -5.72427456094783E+02
non_local_psp       :  1.19856801162842E+01
total_energy        : -9.17522834104531E+01
total_energy_eV     : -2.49670660391335E+03
band_energy         : -1.68165986140848E+01
...

 
 Cartesian components of stress tensor (hartree/bohr^3)
  sigma(1 1)=  6.74511131E-04  sigma(3 2)=  5.83279251E-08
  sigma(2 2)=  5.76651759E-04  sigma(3 1)=  3.40441120E-08
  sigma(3 3)=  1.17968232E-03  sigma(2 1)= -8.47801429E-05
 
-Cartesian components of stress tensor (GPa)         [Pressure= -2.3839E+01 GPa]
- sigma(1 1)=  1.98447993E+01  sigma(3 2)=  1.71606651E-03
- sigma(2 2)=  1.69656776E+01  sigma(3 1)=  1.00161219E-03
- sigma(3 3)=  3.47074464E+01  sigma(2 1)= -2.49431750E+00
 
================================================================================
== DATASET  2 ==================================================================
-   mpi_nproc: 1, omp_nthreads: -1 (-1 if OMP is not activated)
 

--- !DatasetInfo
iteration_state: {dtset: 2, }
dimensions: {natom: 3, nkpt: 77, mband: 8, nsppol: 1, nspinor: 1, nspden: 1, mpw: 2327, }
cutoff_energies: {ecut:  12.0, pawecutdg:  -1.0, }
electrons: {nelect:   2.60000000E+01, charge:   0.00000000E+00, occopt:   1.00000000E+00, tsmear:   1.00000000E-02, }
meta: {optdriver: 0, ionmov: 0, optcell: 0, iscf: -2, paral_kgb: 0, }
...

 mkfilename : getden/=0, take file _DEN from output of DATASET   1.
 
 Exchange-correlation functional for the present dataset will be:
  GGA: Perdew-Burke-Ernzerhof functional - ixc=11
 Citation for XC functional:
  J.P.Perdew, K.Burke, M.Ernzerhof, PRL 77, 3865 (1996)
 
 Real(R)+Recip(G) space primitive vectors, cartesian coordinates (Bohr,Bohr^-1):
 R(1)=  2.9763187 -5.1551351  0.0000000  G(1)=  0.1679928 -0.0969907  0.0000000
 R(2)=  2.9763187  5.1551351  0.0000000  G(2)=  0.1679928  0.0969907  0.0000000
 R(3)=  0.0000000  0.0000000 37.7945227  G(3)=  0.0000000  0.0000000  0.0264589
 Unit cell volume ucvol=  1.1597873E+03 bohr^3
 Angles (23,13,12)=  9.00000000E+01  9.00000000E+01  1.20000000E+02 degrees
 
 getcut: wavevector=  0.0000  0.0000  0.0000  ngfft=  20  20 120
         ecut(hartree)=     12.000   => boxcut(ratio)=   2.03609
--------------------------------------------------------------------------------
 
 
================================================================================
 prteigrs : about to open file mos2o_DS2_EIG
 Non-SCF case, kpt    1 (  0.00000  0.00000  0.00000), residuals and eigenvalues=
  3.77E-13  2.08E-13  7.60E-13  5.45E-13  3.63E-12  2.16E-11  6.52E-11  2.82E-08
 -2.2160E+00 -1.3546E+00 -1.3518E+00 -1.3309E+00 -5.5813E-01 -5.3788E-01
 -2.3668E-01 -1.5040E-01
  prteigrs : nnsclo,ikpt=   10    1 max resid (excl. the buffer)=  2.16115E-11
 Non-SCF case, kpt    2 (  0.01667  0.01667  0.00000), residuals and eigenvalues=
  5.84E-13  3.50E-13  3.93E-13  1.52E-13  7.55E-12  9.83E-13  1.30E-10  6.63E-08
 -2.2152E+00 -1.3547E+00 -1.3518E+00 -1.3309E+00 -5.5763E-01 -5.3753E-01
 -2.3607E-01 -1.5073E-01
  prteigrs : nnsclo,ikpt=   10    2 max resid (excl. the buffer)=  7.55267E-12
 Non-SCF case, kpt    3 (  0.03333  0.03333  0.00000), residuals and eigenvalues=
  6.11E-13  6.90E-13  2.72E-13  4.98E-13  2.84E-12  8.72E-13  9.08E-11  5.19E-08
 -2.2152E+00 -1.3549E+00 -1.3517E+00 -1.3311E+00 -5.5627E-01 -5.3666E-01
 -2.3438E-01 -1.5168E-01
  prteigrs : nnsclo,ikpt=   10    3 max resid (excl. the buffer)=  2.84271E-12
 Non-SCF case, kpt    4 (  0.05000  0.05000  0.00000), residuals and eigenvalues=
  4.10E-13  7.54E-13  9.74E-13  6.38E-13  4.65E-12  5.89E-13  7.89E-11  3.96E-08
 -2.2146E+00 -1.3553E+00 -1.3516E+00 -1.3313E+00 -5.5407E-01 -5.3513E-01
 -2.3156E-01 -1.5324E-01
  prteigrs : nnsclo,ikpt=   10    4 max resid (excl. the buffer)=  4.64557E-12
 Non-SCF case, kpt    5 (  0.06667  0.06667  0.00000), residuals and eigenvalues=
  5.82E-13  7.59E-13  3.76E-13  8.18E-13  3.28E-12  8.78E-13  2.76E-10  1.55E-07
 -2.2151E+00 -1.3559E+00 -1.3515E+00 -1.3316E+00 -5.5117E-01 -5.3312E-01
 -2.2792E-01 -1.5542E-01
  prteigrs : nnsclo,ikpt=   10    5 max resid (excl. the buffer)=  3.27789E-12
 Non-SCF case, kpt    6 (  0.08333  0.08333  0.00000), residuals and eigenvalues=
  6.20E-13  5.02E-13  2.91E-13  7.01E-13  2.43E-12  8.65E-13  6.16E-10  3.50E-07
 -2.2150E+00 -1.3566E+00 -1.3514E+00 -1.3320E+00 -5.4749E-01 -5.3050E-01
 -2.2360E-01 -1.5814E-01
  prteigrs : nnsclo,ikpt=   10    6 max resid (excl. the buffer)=  2.43010E-12
 Non-SCF case, kpt    7 (  0.10000  0.10000  0.00000), residuals and eigenvalues=
  2.35E-13  6.41E-13  8.99E-13  1.74E-13  1.76E-12  3.47E-12  3.89E-10  3.75E-06
 -2.2146E+00 -1.3574E+00 -1.3512E+00 -1.3324E+00 -5.4304E-01 -5.2743E-01
 -2.1844E-01 -1.6121E-01
  prteigrs : nnsclo,ikpt=   10    7 max resid (excl. the buffer)=  3.46630E-12
 Non-SCF case, kpt    8 (  0.11667  0.11667  0.00000), residuals and eigenvalues=
  6.34E-13  4.76E-13  8.46E-13  6.02E-13  1.51E-12  5.68E-13  8.53E-09  2.35E-05
 -2.2146E+00 -1.3583E+00 -1.3510E+00 -1.3329E+00 -5.3805E-01 -5.2392E-01
 -2.1301E-01 -1.6452E-01
  prteigrs : nnsclo,ikpt=   10    8 max resid (excl. the buffer)=  1.51290E-12
 Non-SCF case, kpt    9 (  0.13333  0.13333  0.00000), residuals and eigenvalues=
  9.25E-13  1.44E-13  1.84E-13  8.41E-13  2.02E-12  1.26E-12  2.32E-08  3.43E-05
 -2.2146E+00 -1.3593E+00 -1.3508E+00 -1.3334E+00 -5.3248E-01 -5.1996E-01
 -2.0773E-01 -1.6786E-01
  prteigrs : nnsclo,ikpt=   10    9 max resid (excl. the buffer)=  2.01911E-12
 Non-SCF case, kpt   10 (  0.15000  0.15000  0.00000), residuals and eigenvalues=
  2.37E-13  7.18E-13  6.45E-13  1.81E-13  8.43E-13  2.13E-12  1.37E-07  9.80E-06
 -2.2139E+00 -1.3602E+00 -1.3506E+00 -1.3340E+00 -5.2638E-01 -5.1573E-01
 -2.0310E-01 -1.7163E-01
  prteigrs : nnsclo,ikpt=   10   10 max resid (excl. the buffer)=  2.13217E-12
 Non-SCF case, kpt   11 (  0.16667  0.16667  0.00000), residuals and eigenvalues=
  3.92E-13  5.79E-13  9.97E-13  1.60E-13  1.58E-12  1.25E-12  1.50E-06  5.69E-06
 -2.2120E+00 -1.3611E+00 -1.3503E+00 -1.3346E+00 -5.2004E-01 -5.1119E-01
 -2.0077E-01 -1.7755E-01
  prteigrs : nnsclo,ikpt=   10   11 max resid (excl. the buffer)=  1.58358E-12
 Non-SCF case, kpt   12 (  0.18333  0.18333  0.00000), residuals and eigenvalues=
  2.66E-13  1.70E-13  9.34E-13  5.62E-13  9.87E-13  8.16E-13  1.42E-06  1.90E-05
 -2.2106E+00 -1.3619E+00 -1.3501E+00 -1.3352E+00 -5.1354E-01 -5.0657E-01
 -2.0314E-01 -1.8245E-01
 Non-SCF case, kpt   13 (  0.20000  0.20000  0.00000), residuals and eigenvalues=
  2.37E-13  5.31E-13  5.97E-13  7.87E-13  9.84E-13  8.07E-13  1.58E-06  3.28E-06
 -2.2113E+00 -1.3627E+00 -1.3499E+00 -1.3358E+00 -5.0709E-01 -5.0208E-01
 -2.0894E-01 -1.9110E-01
 Non-SCF case, kpt   14 (  0.21667  0.21667  0.00000), residuals and eigenvalues=
  3.15E-13  2.83E-13  2.35E-13  3.88E-13  4.59E-13  7.92E-13  1.38E-07  3.01E-06
 -2.2108E+00 -1.3633E+00 -1.3498E+00 -1.3364E+00 -5.0078E-01 -4.9769E-01
 -2.1502E-01 -1.9987E-01
 Non-SCF case, kpt   15 (  0.23333  0.23333  0.00000), residuals and eigenvalues=
  3.51E-13  9.16E-13  3.78E-13  2.45E-13  6.33E-13  8.52E-13  1.83E-08  1.69E-07
 -2.2113E+00 -1.3638E+00 -1.3496E+00 -1.3370E+00 -4.9506E-01 -4.9355E-01
 -2.2011E-01 -2.0803E-01
 Non-SCF case, kpt   16 (  0.25000  0.25000  0.00000), residuals and eigenvalues=
  3.00E-13  8.96E-13  1.98E-13  4.35E-13  8.42E-13  4.21E-13  2.74E-08  1.04E-07
 -2.2090E+00 -1.3641E+00 -1.3495E+00 -1.3376E+00 -4.9012E-01 -4.8933E-01
 -2.2337E-01 -2.1488E-01
 Non-SCF case, kpt   17 (  0.26667  0.26667  0.00000), residuals and eigenvalues=
  3.36E-13  8.50E-13  2.02E-13  3.20E-13  3.57E-13  6.15E-13  2.08E-08  7.56E-09
 -2.2079E+00 -1.3643E+00 -1.3494E+00 -1.3382E+00 -4.8687E-01 -4.8502E-01
 -2.2473E-01 -2.2024E-01
 Non-SCF case, kpt   18 (  0.28333  0.28333  0.00000), residuals and eigenvalues=
  2.34E-13  8.77E-13  6.14E-13  1.89E-13  4.82E-13  7.18E-13  4.69E-09  1.98E-09
 -2.2083E+00 -1.3644E+00 -1.3493E+00 -1.3387E+00 -4.8444E-01 -4.8164E-01
 -2.2432E-01 -2.2375E-01
 Non-SCF case, kpt   19 (  0.30000  0.30000  0.00000), residuals and eigenvalues=
  2.86E-13  1.86E-13  2.12E-13  4.66E-13  9.76E-13  7.62E-13  3.43E-07  1.33E-07
 -2.2076E+00 -1.3643E+00 -1.3492E+00 -1.3392E+00 -4.8273E-01 -4.7919E-01
 -2.2660E-01 -2.2098E-01
 Non-SCF case, kpt   20 (  0.31667  0.31667  0.00000), residuals and eigenvalues=
  7.93E-13  7.88E-13  5.43E-13  8.74E-13  4.27E-13  8.33E-13  1.35E-07  2.64E-06
 -2.2072E+00 -1.3640E+00 -1.3492E+00 -1.3397E+00 -4.8169E-01 -4.7784E-01
 -2.2780E-01 -2.1653E-01
 Non-SCF case, kpt   21 (  0.33333  0.33333  0.00000), residuals and eigenvalues=
  2.59E-13  7.23E-13  7.85E-13  2.79E-13  7.72E-13  7.70E-13  1.01E-06  1.00E-04
 -2.2059E+00 -1.3637E+00 -1.3492E+00 -1.3400E+00 -4.8134E-01 -4.7732E-01
 -2.2798E-01 -2.1309E-01
 Non-SCF case, kpt   22 (  0.35000  0.30000  0.00000), residuals and eigenvalues=
  4.48E-13  7.03E-13  5.74E-13  3.29E-13  4.96E-13  4.91E-13  2.64E-08  2.75E-08
 -2.2063E+00 -1.3644E+00 -1.3492E+00 -1.3393E+00 -4.8162E-01 -4.7773E-01
 -2.2811E-01 -2.1721E-01
 Non-SCF case, kpt   23 (  0.36667  0.26667  0.00000), residuals and eigenvalues=
  3.27E-13  1.35E-13  4.42E-13  2.23E-13  8.73E-13  7.62E-13  2.81E-09  3.80E-08
 -2.2090E+00 -1.3650E+00 -1.3492E+00 -1.3386E+00 -4.8253E-01 -4.7875E-01
 -2.2859E-01 -2.2358E-01
 Non-SCF case, kpt   24 (  0.38333  0.23333  0.00000), residuals and eigenvalues=
  2.92E-13  1.97E-13  1.60E-13  1.84E-13  4.09E-13  6.06E-13  7.75E-09  2.92E-09
 -2.2088E+00 -1.3656E+00 -1.3493E+00 -1.3378E+00 -4.8355E-01 -4.8006E-01
 -2.3012E-01 -2.2933E-01
 Non-SCF case, kpt   25 (  0.40000  0.20000  0.00000), residuals and eigenvalues=
  3.24E-13  4.62E-13  8.92E-13  9.02E-13  4.97E-13  4.98E-13  3.65E-09  4.62E-09
 -2.2096E+00 -1.3661E+00 -1.3493E+00 -1.3370E+00 -4.8482E-01 -4.8162E-01
 -2.3598E-01 -2.3081E-01
 Non-SCF case, kpt   26 (  0.41667  0.16667  0.00000), residuals and eigenvalues=
  7.71E-13  4.16E-13  2.18E-13  7.59E-13  6.60E-13  5.91E-13  5.75E-10  3.86E-09
 -2.2094E+00 -1.3665E+00 -1.3493E+00 -1.3362E+00 -4.8606E-01 -4.8322E-01
 -2.4119E-01 -2.3239E-01
 Non-SCF case, kpt   27 (  0.43333  0.13333  0.00000), residuals and eigenvalues=
  8.95E-13  9.94E-13  6.26E-13  3.71E-13  4.37E-13  6.23E-13  1.22E-10  1.90E-09
 -2.2090E+00 -1.3669E+00 -1.3494E+00 -1.3355E+00 -4.8722E-01 -4.8468E-01
 -2.4563E-01 -2.3400E-01
 Non-SCF case, kpt   28 (  0.45000  0.10000  0.00000), residuals and eigenvalues=
  9.25E-13  1.41E-13  6.33E-13  2.92E-13  5.14E-13  9.10E-13  1.41E-09  1.33E-09
 -2.2090E+00 -1.3672E+00 -1.3494E+00 -1.3349E+00 -4.8832E-01 -4.8587E-01
 -2.4906E-01 -2.3544E-01
 Non-SCF case, kpt   29 (  0.46667  0.06667  0.00000), residuals and eigenvalues=
  4.81E-13  8.68E-13  5.84E-13  5.11E-13  6.38E-13  4.43E-13  8.23E-10  4.94E-09
 -2.2100E+00 -1.3675E+00 -1.3494E+00 -1.3345E+00 -4.8912E-01 -4.8697E-01
 -2.5168E-01 -2.3657E-01
 Non-SCF case, kpt   30 (  0.48333  0.03333  0.00000), residuals and eigenvalues=
  2.32E-13  7.35E-13  1.82E-13  4.34E-13  5.81E-13  5.94E-13  3.06E-10  9.43E-10
 -2.2113E+00 -1.3676E+00 -1.3494E+00 -1.3343E+00 -4.8978E-01 -4.8754E-01
 -2.5321E-01 -2.3735E-01
 Non-SCF case, kpt   31 (  0.50000  0.00000  0.00000), residuals and eigenvalues=
  2.88E-13  1.73E-13  5.37E-13  9.42E-13  5.28E-13  1.34E-12  7.74E-09  1.10E-09
 -2.2117E+00 -1.3676E+00 -1.3495E+00 -1.3342E+00 -4.8997E-01 -4.8777E-01
 -2.5368E-01 -2.3760E-01
  prteigrs : nnsclo,ikpt=   10   31 max resid (excl. the buffer)=  1.34070E-12
 Non-SCF case, kpt   32 (  0.51087  0.02174  0.02174), residuals and eigenvalues=
  5.24E-13  2.06E-13  3.69E-13  2.28E-13  5.51E-13  9.57E-13  2.97E-09  3.44E-09
 -2.2112E+00 -1.3676E+00 -1.3495E+00 -1.3342E+00 -4.9018E-01 -4.8813E-01
 -2.5272E-01 -2.3685E-01
 Non-SCF case, kpt   33 (  0.52174  0.04348  0.04348), residuals and eigenvalues=
  5.78E-13  8.47E-13  1.50E-13  2.57E-13  7.37E-13  5.68E-13  1.03E-09  7.25E-09
 -2.2103E+00 -1.3673E+00 -1.3495E+00 -1.3343E+00 -4.9081E-01 -4.8918E-01
 -2.4973E-01 -2.3465E-01
 Non-SCF case, kpt   34 (  0.53261  0.06522  0.06522), residuals and eigenvalues=
  9.77E-13  2.17E-13  8.62E-13  2.86E-13  6.10E-13  4.63E-13  3.26E-09  8.23E-10
 -2.2106E+00 -1.3670E+00 -1.3495E+00 -1.3344E+00 -4.9196E-01 -4.9090E-01
 -2.4509E-01 -2.3114E-01
 Non-SCF case, kpt   35 (  0.54348  0.08696  0.08696), residuals and eigenvalues=
  4.03E-13  2.44E-13  2.06E-13  4.35E-13  3.40E-13  8.28E-13  5.92E-09  1.45E-08
 -2.2112E+00 -1.3665E+00 -1.3496E+00 -1.3345E+00 -4.9368E-01 -4.9296E-01
 -2.3911E-01 -2.2636E-01
 Non-SCF case, kpt   36 (  0.55435  0.10870  0.10870), residuals and eigenvalues=
  4.20E-13  6.98E-13  3.53E-13  8.11E-13  3.16E-13  5.93E-13  8.81E-09  7.57E-08
 -2.2112E+00 -1.3658E+00 -1.3496E+00 -1.3347E+00 -4.9608E-01 -4.9485E-01
 -2.3220E-01 -2.2046E-01
 Non-SCF case, kpt   37 (  0.56522  0.13043  0.13043), residuals and eigenvalues=
  9.32E-13  7.48E-13  1.57E-13  4.84E-13  5.56E-13  4.37E-13  4.84E-09  5.67E-08
 -2.2112E+00 -1.3652E+00 -1.3497E+00 -1.3349E+00 -4.9884E-01 -4.9666E-01
 -2.2488E-01 -2.1365E-01
 Non-SCF case, kpt   38 (  0.57609  0.15217  0.15217), residuals and eigenvalues=
  1.97E-13  6.33E-13  5.92E-13  6.67E-13  8.07E-13  9.13E-13  2.53E-09  2.16E-07
 -2.2118E+00 -1.3644E+00 -1.3498E+00 -1.3352E+00 -5.0168E-01 -4.9852E-01
 -2.1804E-01 -2.0626E-01
 Non-SCF case, kpt   39 (  0.58696  0.17391  0.17391), residuals and eigenvalues=
  7.78E-13  7.69E-13  8.87E-13  5.75E-13  8.75E-13  4.31E-13  2.64E-06  2.78E-04
 -2.2113E+00 -1.3636E+00 -1.3499E+00 -1.3354E+00 -5.0427E-01 -5.0023E-01
 -2.1258E-01 -1.9795E-01
 Non-SCF case, kpt   40 (  0.59783  0.19565  0.19565), residuals and eigenvalues=
  2.85E-13  8.33E-13  1.46E-13  2.09E-13  7.89E-13  3.72E-13  2.78E-07  6.19E-06
 -2.2111E+00 -1.3629E+00 -1.3499E+00 -1.3357E+00 -5.0663E-01 -5.0177E-01
 -2.0929E-01 -1.9212E-01
 Non-SCF case, kpt   41 (  0.60870  0.21739  0.21739), residuals and eigenvalues=
  6.96E-13  7.06E-13  3.48E-13  4.43E-13  1.45E-12  8.78E-13  2.62E-07  1.40E-04
 -2.2113E+00 -1.3621E+00 -1.3500E+00 -1.3361E+00 -5.0860E-01 -5.0317E-01
 -2.0831E-01 -1.8721E-01
  prteigrs : nnsclo,ikpt=   10   41 max resid (excl. the buffer)=  1.45199E-12
 Non-SCF case, kpt   42 (  0.61957  0.23913  0.23913), residuals and eigenvalues=
  3.00E-13  7.34E-13  1.91E-13  1.92E-13  1.34E-12  9.49E-13  2.55E-07  8.00E-06
 -2.2116E+00 -1.3614E+00 -1.3500E+00 -1.3364E+00 -5.1013E-01 -5.0428E-01
 -2.0915E-01 -1.8963E-01
  prteigrs : nnsclo,ikpt=   10   42 max resid (excl. the buffer)=  1.34348E-12
 Non-SCF case, kpt   43 (  0.63043  0.26087  0.26087), residuals and eigenvalues=
  2.66E-13  7.56E-13  6.84E-13  9.38E-13  9.85E-13  8.79E-13  7.58E-07  2.01E-05
 -2.2128E+00 -1.3608E+00 -1.3501E+00 -1.3368E+00 -5.1126E-01 -5.0505E-01
 -2.1111E-01 -1.9235E-01
 Non-SCF case, kpt   44 (  0.64130  0.28261  0.28261), residuals and eigenvalues=
  5.49E-13  2.85E-13  5.19E-13  6.20E-13  7.08E-13  5.86E-13  3.50E-07  1.32E-05
 -2.2122E+00 -1.3602E+00 -1.3501E+00 -1.3372E+00 -5.1168E-01 -5.0539E-01
 -2.1344E-01 -1.9533E-01
 Non-SCF case, kpt   45 (  0.65217  0.30435  0.30435), residuals and eigenvalues=
  2.09E-13  9.71E-13  9.85E-13  1.77E-13  8.96E-13  4.33E-13  3.16E-07  3.66E-06
 -2.2123E+00 -1.3598E+00 -1.3501E+00 -1.3376E+00 -5.1160E-01 -5.0534E-01
 -2.1577E-01 -1.9816E-01
 Non-SCF case, kpt   46 (  0.66304  0.32609  0.32609), residuals and eigenvalues=
  8.64E-13  2.12E-13  2.40E-13  2.05E-13  4.70E-13  5.49E-13  5.75E-07  2.54E-05
 -2.2127E+00 -1.3594E+00 -1.3501E+00 -1.3381E+00 -5.1092E-01 -5.0490E-01
 -2.1779E-01 -2.0041E-01
 Non-SCF case, kpt   47 (  0.67391  0.34783  0.34783), residuals and eigenvalues=
  3.26E-13  7.61E-13  8.71E-13  2.66E-13  7.58E-13  4.27E-13  1.38E-07  1.68E-06
 -2.2123E+00 -1.3592E+00 -1.3501E+00 -1.3386E+00 -5.0966E-01 -5.0399E-01
 -2.1934E-01 -2.0243E-01
 Non-SCF case, kpt   48 (  0.68478  0.36957  0.36957), residuals and eigenvalues=
  9.37E-13  2.30E-13  5.71E-13  1.86E-13  1.41E-12  4.33E-13  1.43E-07  6.07E-06
 -2.2116E+00 -1.3590E+00 -1.3500E+00 -1.3391E+00 -5.0783E-01 -5.0268E-01
 -2.2040E-01 -2.0391E-01
  prteigrs : nnsclo,ikpt=   10   48 max resid (excl. the buffer)=  1.40972E-12
 Non-SCF case, kpt   49 (  0.69565  0.39130  0.39130), residuals and eigenvalues=
  5.54E-13  1.48E-13  2.05E-13  5.12E-13  8.24E-13  5.83E-13  9.38E-08  2.89E-05
 -2.2115E+00 -1.3590E+00 -1.3499E+00 -1.3397E+00 -5.0558E-01 -5.0103E-01
 -2.2104E-01 -2.0503E-01
 Non-SCF case, kpt   50 (  0.70652  0.41304  0.41304), residuals and eigenvalues=
  7.48E-13  3.13E-13  4.05E-13  3.72E-13  1.08E-12  4.12E-13  9.07E-09  6.36E-07
 -2.2116E+00 -1.3591E+00 -1.3499E+00 -1.3402E+00 -5.0292E-01 -4.9906E-01
 -2.2133E-01 -2.0623E-01
  prteigrs : nnsclo,ikpt=   10   50 max resid (excl. the buffer)=  1.08497E-12
 Non-SCF case, kpt   51 (  0.71739  0.43478  0.43478), residuals and eigenvalues=
  2.78E-13  1.73E-13  1.83E-13  6.50E-13  9.67E-13  9.80E-13  2.49E-08  1.15E-06
 -2.2116E+00 -1.3592E+00 -1.3498E+00 -1.3406E+00 -4.9987E-01 -4.9689E-01
 -2.2144E-01 -2.0750E-01
 Non-SCF case, kpt   52 (  0.72826  0.45652  0.45652), residuals and eigenvalues=
  9.15E-13  8.90E-13  1.88E-13  2.69E-13  6.03E-13  4.08E-13  5.53E-09  6.32E-08
 -2.2110E+00 -1.3595E+00 -1.3497E+00 -1.3410E+00 -4.9660E-01 -4.9447E-01
 -2.2155E-01 -2.0931E-01
 Non-SCF case, kpt   53 (  0.73913  0.47826  0.47826), residuals and eigenvalues=
  2.71E-13  4.59E-13  1.64E-13  2.95E-13  5.31E-13  3.84E-13  6.49E-09  2.19E-08
 -2.2102E+00 -1.3598E+00 -1.3496E+00 -1.3413E+00 -4.9328E-01 -4.9197E-01
 -2.2195E-01 -2.1196E-01
 Non-SCF case, kpt   54 (  0.75000  0.50000  0.50000), residuals and eigenvalues=
  3.02E-13  1.76E-13  9.03E-13  8.44E-13  9.74E-13  7.69E-13  5.99E-09  3.51E-08
 -2.2090E+00 -1.3602E+00 -1.3495E+00 -1.3415E+00 -4.9011E-01 -4.8939E-01
 -2.2289E-01 -2.1551E-01
 Non-SCF case, kpt   55 (  0.76087  0.52174  0.52174), residuals and eigenvalues=
  8.12E-13  4.73E-13  8.85E-13  1.38E-13  7.10E-13  3.85E-13  3.29E-09  4.16E-09
 -2.2095E+00 -1.3607E+00 -1.3494E+00 -1.3415E+00 -4.8783E-01 -4.8670E-01
 -2.2493E-01 -2.1952E-01
 Non-SCF case, kpt   56 (  0.77174  0.54348  0.54348), residuals and eigenvalues=
  6.84E-13  2.27E-13  5.94E-13  3.11E-13  5.70E-13  8.62E-13  1.89E-08  3.29E-08
 -2.2095E+00 -1.3612E+00 -1.3494E+00 -1.3414E+00 -4.8614E-01 -4.8426E-01
 -2.2782E-01 -2.2343E-01
 Non-SCF case, kpt   57 (  0.78261  0.56522  0.56522), residuals and eigenvalues=
  2.71E-13  7.22E-13  9.19E-13  4.54E-13  4.17E-13  8.73E-13  7.57E-09  1.09E-07
 -2.2087E+00 -1.3617E+00 -1.3493E+00 -1.3412E+00 -4.8496E-01 -4.8251E-01
 -2.3111E-01 -2.2650E-01
 Non-SCF case, kpt   58 (  0.79348  0.58696  0.58696), residuals and eigenvalues=
  2.56E-13  8.91E-13  4.50E-13  4.93E-13  4.57E-13  7.72E-13  5.62E-09  1.12E-08
 -2.2086E+00 -1.3621E+00 -1.3493E+00 -1.3409E+00 -4.8452E-01 -4.8176E-01
 -2.3415E-01 -2.2837E-01
 Non-SCF case, kpt   59 (  0.80435  0.60870  0.60870), residuals and eigenvalues=
  2.71E-13  1.66E-13  1.73E-13  5.07E-13  7.26E-13  8.65E-13  3.48E-09  8.55E-09
 -2.2086E+00 -1.3624E+00 -1.3493E+00 -1.3406E+00 -4.8487E-01 -4.8216E-01
 -2.3620E-01 -2.2867E-01
 Non-SCF case, kpt   60 (  0.81522  0.63043  0.63043), residuals and eigenvalues=
  6.28E-13  8.17E-13  1.70E-13  6.71E-13  4.37E-13  7.63E-13  6.21E-10  9.56E-09
 -2.2090E+00 -1.3626E+00 -1.3494E+00 -1.3401E+00 -4.8603E-01 -4.8383E-01
 -2.3668E-01 -2.2723E-01
 Non-SCF case, kpt   61 (  0.82609  0.65217  0.65217), residuals and eigenvalues=
  7.98E-13  1.65E-13  1.79E-13  2.47E-13  2.51E-13  9.16E-13  2.59E-09  6.64E-09
 -2.2095E+00 -1.3626E+00 -1.3494E+00 -1.3395E+00 -4.8810E-01 -4.8668E-01
 -2.3539E-01 -2.2395E-01
 Non-SCF case, kpt   62 (  0.83696  0.67391  0.67391), residuals and eigenvalues=
  2.52E-13  7.84E-13  4.68E-13  9.92E-13  4.77E-13  4.65E-13  3.77E-09  1.62E-08
 -2.2101E+00 -1.3625E+00 -1.3495E+00 -1.3390E+00 -4.9117E-01 -4.9046E-01
 -2.3214E-01 -2.1887E-01
 Non-SCF case, kpt   63 (  0.84783  0.69565  0.69565), residuals and eigenvalues=
  3.01E-13  1.49E-13  4.93E-13  9.76E-13  9.80E-13  9.04E-13  3.19E-08  1.39E-07
 -2.2114E+00 -1.3623E+00 -1.3496E+00 -1.3383E+00 -4.9587E-01 -4.9425E-01
 -2.2721E-01 -2.1222E-01
 Non-SCF case, kpt   64 (  0.85870  0.71739  0.71739), residuals and eigenvalues=
  5.99E-13  6.78E-13  1.74E-13  8.36E-13  5.25E-13  5.23E-13  3.97E-08  6.92E-07
 -2.2118E+00 -1.3619E+00 -1.3498E+00 -1.3377E+00 -5.0149E-01 -4.9823E-01
 -2.2077E-01 -2.0423E-01
 Non-SCF case, kpt   65 (  0.86957  0.73913  0.73913), residuals and eigenvalues=
  3.19E-13  8.62E-13  1.93E-13  9.57E-13  1.46E-12  5.15E-13  2.19E-07  4.57E-06
 -2.2115E+00 -1.3614E+00 -1.3500E+00 -1.3370E+00 -5.0758E-01 -5.0247E-01
 -2.1353E-01 -1.9540E-01
  prteigrs : nnsclo,ikpt=   10   65 max resid (excl. the buffer)=  1.46239E-12
 Non-SCF case, kpt   66 (  0.88043  0.76087  0.76087), residuals and eigenvalues=
  6.76E-13  8.10E-13  1.79E-13  9.92E-13  9.95E-13  1.17E-12  4.28E-06  4.53E-05
 -2.2126E+00 -1.3608E+00 -1.3502E+00 -1.3362E+00 -5.1398E-01 -5.0696E-01
 -2.0697E-01 -1.8594E-01
  prteigrs : nnsclo,ikpt=   10   66 max resid (excl. the buffer)=  1.16849E-12
 Non-SCF case, kpt   67 (  0.89130  0.78261  0.78261), residuals and eigenvalues=
  2.45E-13  8.50E-13  7.50E-13  9.61E-13  6.45E-13  6.55E-13  5.76E-08  5.58E-06
 -2.2132E+00 -1.3601E+00 -1.3504E+00 -1.3355E+00 -5.2039E-01 -5.1147E-01
 -2.0368E-01 -1.7856E-01
 Non-SCF case, kpt   68 (  0.90217  0.80435  0.80435), residuals and eigenvalues=
  4.68E-13  7.36E-13  6.48E-13  3.79E-13  4.84E-12  6.90E-13  1.56E-07  3.20E-06
 -2.2140E+00 -1.3593E+00 -1.3506E+00 -1.3348E+00 -5.2668E-01 -5.1590E-01
 -2.0503E-01 -1.7137E-01
  prteigrs : nnsclo,ikpt=   10   68 max resid (excl. the buffer)=  4.83551E-12
 Non-SCF case, kpt   69 (  0.91304  0.82609  0.82609), residuals and eigenvalues=
  4.53E-13  6.94E-13  1.24E-13  3.15E-13  5.69E-12  8.30E-13  2.16E-08  1.02E-04
 -2.2142E+00 -1.3585E+00 -1.3508E+00 -1.3341E+00 -5.3261E-01 -5.2011E-01
 -2.0896E-01 -1.6599E-01
  prteigrs : nnsclo,ikpt=   10   69 max resid (excl. the buffer)=  5.68697E-12
 Non-SCF case, kpt   70 (  0.92391  0.84783  0.84783), residuals and eigenvalues=
  5.12E-13  8.98E-13  8.51E-13  5.87E-13  2.83E-12  7.47E-13  2.76E-09  6.28E-05
 -2.2145E+00 -1.3577E+00 -1.3510E+00 -1.3335E+00 -5.3816E-01 -5.2401E-01
 -2.1389E-01 -1.6349E-01
  prteigrs : nnsclo,ikpt=   10   70 max resid (excl. the buffer)=  2.82702E-12
 Non-SCF case, kpt   71 (  0.93478  0.86957  0.86957), residuals and eigenvalues=
  3.80E-13  2.59E-13  4.32E-13  8.15E-13  2.32E-12  6.86E-13  1.17E-09  4.16E-05
 -2.2152E+00 -1.3570E+00 -1.3512E+00 -1.3329E+00 -5.4320E-01 -5.2752E-01
 -2.1905E-01 -1.6037E-01
  prteigrs : nnsclo,ikpt=   10   71 max resid (excl. the buffer)=  2.32117E-12
 Non-SCF case, kpt   72 (  0.94565  0.89130  0.89130), residuals and eigenvalues=
  2.55E-13  6.35E-13  8.06E-13  6.46E-13  2.67E-12  3.87E-12  9.84E-10  1.84E-06
 -2.2147E+00 -1.3563E+00 -1.3514E+00 -1.3323E+00 -5.4753E-01 -5.3055E-01
 -2.2384E-01 -1.5752E-01
  prteigrs : nnsclo,ikpt=   10   72 max resid (excl. the buffer)=  3.87403E-12
 Non-SCF case, kpt   73 (  0.95652  0.91304  0.91304), residuals and eigenvalues=
  8.73E-13  4.28E-13  1.90E-13  5.82E-13  1.95E-12  2.10E-12  2.94E-10  3.83E-07
 -2.2148E+00 -1.3557E+00 -1.3515E+00 -1.3318E+00 -5.5121E-01 -5.3312E-01
 -2.2815E-01 -1.5500E-01
  prteigrs : nnsclo,ikpt=   10   73 max resid (excl. the buffer)=  2.09954E-12
 Non-SCF case, kpt   74 (  0.96739  0.93478  0.93478), residuals and eigenvalues=
  7.76E-13  3.94E-13  6.94E-13  4.70E-13  3.92E-12  1.14E-12  1.44E-10  8.62E-08
 -2.2148E+00 -1.3552E+00 -1.3516E+00 -1.3314E+00 -5.5411E-01 -5.3517E-01
 -2.3172E-01 -1.5300E-01
  prteigrs : nnsclo,ikpt=   10   74 max resid (excl. the buffer)=  3.92284E-12
 Non-SCF case, kpt   75 (  0.97826  0.95652  0.95652), residuals and eigenvalues=
  3.01E-13  8.38E-13  4.42E-13  3.39E-13  8.71E-12  2.52E-12  2.32E-10  9.10E-08
 -2.2152E+00 -1.3549E+00 -1.3517E+00 -1.3311E+00 -5.5628E-01 -5.3667E-01
 -2.3442E-01 -1.5156E-01
  prteigrs : nnsclo,ikpt=   10   75 max resid (excl. the buffer)=  8.70794E-12
 Non-SCF case, kpt   76 (  0.98913  0.97826  0.97826), residuals and eigenvalues=
  3.71E-13  9.50E-13  2.61E-13  6.43E-13  9.45E-12  8.93E-13  1.56E-10  9.57E-08
 -2.2153E+00 -1.3547E+00 -1.3518E+00 -1.3310E+00 -5.5762E-01 -5.3756E-01
 -2.3607E-01 -1.5070E-01
  prteigrs : nnsclo,ikpt=   10   76 max resid (excl. the buffer)=  9.45216E-12
 Non-SCF case, kpt   77 (  1.00000  1.00000  1.00000), residuals and eigenvalues=
  3.68E-13  7.38E-13  3.64E-13  9.80E-13  4.93E-11  3.16E-12  1.30E-10  9.54E-08
 -2.2160E+00 -1.3546E+00 -1.3518E+00 -1.3309E+00 -5.5813E-01 -5.3788E-01
 -2.3668E-01 -1.5040E-01
  prteigrs : nnsclo,ikpt=   10   77 max resid (excl. the buffer)=  4.93113E-11
 
 
 scprqt:  WARNING -
  nstep=   10 was not enough non-SCF iterations to converge;
  maximum residual=  4.931E-11 exceeds tolwfr=  1.000E-12
 

--- !ResultsGS
iteration_state: {dtset: 2, }
comment   : Summary of ground state results
lattice_vectors:
- [  2.9763187,  -5.1551351,   0.0000000, ]
- [  2.9763187,   5.1551351,   0.0000000, ]
- [  0.0000000,   0.0000000,  37.7945227, ]
lattice_lengths: [   5.95264,    5.95264,   37.79452, ]
lattice_angles: [ 90.000,  90.000, 120.000, ] # degrees, (23, 13, 12)
lattice_volume:   1.1597873E+03
convergence: {deltae:  0.000E+00, res2:  0.000E+00, residm:  4.931E-11, diffor:  0.000E+00, }
etotal    :  -9.17522834E+01
entropy   :   0.00000000E+00
fermie    :  -7.78371054E-02
cartesian_stress_tensor: null
pressure_GPa: null
xred      :
- [  3.3333E-01,   6.6667E-01,   0.0000E+00, Mo]
- [  6.6667E-01,   3.3333E-01,  -9.1944E-02,  S]
- [  6.6667E-01,   3.3333E-01,   9.1944E-02,  S]
cartesian_forces: null
force_length_stats: {min: null, max: null, mean: null, }
...

 Integrated electronic density in atomic spheres:
 ------------------------------------------------
 Atom  Sphere_radius  Integrated_density
    1        2.00000         10.44089670
    2        2.00000          3.84521671
    3        2.00000          3.84512670
================================================================================
 
 ----iterations are completed or convergence reached----
 
 Mean square residual over all n,k,spin=   88.492E-14; max=  49.311E-12
 reduced coordinates (array xred) for    3 atoms
       0.333333333333      0.666666666667      0.000000000000
       0.666666666667      0.333333333333     -0.091944235000
       0.666666666667      0.333333333333      0.091944235000
 
 cartesian coordinates (angstrom) at end:
    1      1.57500000000000     0.90932667396900     0.00000000000000
    2      1.57500000000000    -0.90932667396900    -1.83888470000000
    3      1.57500000000000    -0.90932667396900     1.83888470000000
 length scales=  5.952637318590  5.952637318590 37.794522657713 bohr
              =  3.150000000000  3.150000000000 20.000000000000 angstroms
 prteigrs : about to open file mos2o_DS2_EIG
 Eigenvalues (   eV  ) for nkpt=  77  k points:
 kpt#   1, nband=  8, wtk=  1.00000, kpt=  0.0000  0.0000  0.0000 (reduced coord)
 -60.30098  -36.86023  -36.78441  -36.21576  -15.18757  -14.63652   -6.44045   -4.09261
 kpt#   2, nband=  8, wtk=  1.00000, kpt=  0.0167  0.0167  0.0000 (reduced coord)
 -60.27969  -36.86233  -36.78388  -36.21684  -15.17391  -14.62694   -6.42391   -4.10151
 kpt#   3, nband=  8, wtk=  1.00000, kpt=  0.0333  0.0333  0.0000 (reduced coord)
 -60.27960  -36.86942  -36.78221  -36.22058  -15.13691  -14.60317   -6.37773   -4.12736
 kpt#   4, nband=  8, wtk=  1.00000, kpt=  0.0500  0.0500  0.0000 (reduced coord)
 -60.26163  -36.88090  -36.77953  -36.22663  -15.07708  -14.56160   -6.30119   -4.16980
 kpt#   5, nband=  8, wtk=  1.00000, kpt=  0.0667  0.0667  0.0000 (reduced coord)
 -60.27711  -36.89668  -36.77622  -36.23501  -14.99819  -14.50686   -6.20197   -4.22920
 kpt#   6, nband=  8, wtk=  1.00000, kpt=  0.0833  0.0833  0.0000 (reduced coord)
 -60.27210  -36.91571  -36.77233  -36.24511  -14.89809  -14.43565   -6.08457   -4.30326
 kpt#   7, nband=  8, wtk=  1.00000, kpt=  0.1000  0.1000  0.0000 (reduced coord)
 -60.26232  -36.93791  -36.76734  -36.25702  -14.77700  -14.35197   -5.94408   -4.38674
 kpt#   8, nband=  8, wtk=  1.00000, kpt=  0.1167  0.1167  0.0000 (reduced coord)
 -60.26295  -36.96213  -36.76202  -36.27041  -14.64122  -14.25647   -5.79642   -4.47685
 kpt#   9, nband=  8, wtk=  1.00000, kpt=  0.1333  0.1333  0.0000 (reduced coord)
 -60.26239  -36.98735  -36.75651  -36.28487  -14.48944  -14.14881   -5.65258   -4.56779
 kpt#  10, nband=  8, wtk=  1.00000, kpt=  0.1500  0.1500  0.0000 (reduced coord)
 -60.24420  -37.01296  -36.75063  -36.30006  -14.32362  -14.03368   -5.52676   -4.67028
 kpt#  11, nband=  8, wtk=  1.00000, kpt=  0.1667  0.1667  0.0000 (reduced coord)
 -60.19039  -37.03745  -36.74462  -36.31579  -14.15109  -13.91019   -5.46328   -4.83146
 kpt#  12, nband=  8, wtk=  1.00000, kpt=  0.1833  0.1833  0.0000 (reduced coord)
 -60.15316  -37.06029  -36.73888  -36.33224  -13.97416  -13.78451   -5.52780   -4.96467
 kpt#  13, nband=  8, wtk=  1.00000, kpt=  0.2000  0.2000  0.0000 (reduced coord)
 -60.17317  -37.08112  -36.73376  -36.34924  -13.79850  -13.66226   -5.68564   -5.20004
 kpt#  14, nband=  8, wtk=  1.00000, kpt=  0.2167  0.2167  0.0000 (reduced coord)
 -60.15979  -37.09826  -36.72897  -36.36610  -13.62697  -13.54277   -5.85100   -5.43877
 kpt#  15, nband=  8, wtk=  1.00000, kpt=  0.2333  0.2333  0.0000 (reduced coord)
 -60.17158  -37.11185  -36.72481  -36.38288  -13.47116  -13.43026   -5.98960   -5.66080
 kpt#  16, nband=  8, wtk=  1.00000, kpt=  0.2500  0.2500  0.0000 (reduced coord)
 -60.11126  -37.12039  -36.72109  -36.39895  -13.33686  -13.31528   -6.07819   -5.84727
 kpt#  17, nband=  8, wtk=  1.00000, kpt=  0.2667  0.2667  0.0000 (reduced coord)
 -60.08053  -37.12520  -36.71792  -36.41448  -13.24844  -13.19805   -6.11529   -5.99300
 kpt#  18, nband=  8, wtk=  1.00000, kpt=  0.2833  0.2833  0.0000 (reduced coord)
 -60.09068  -37.12604  -36.71603  -36.42915  -13.18241  -13.10602   -6.10419   -6.08865
 kpt#  19, nband=  8, wtk=  1.00000, kpt=  0.3000  0.3000  0.0000 (reduced coord)
 -60.07312  -37.12324  -36.71454  -36.44254  -13.13575  -13.03952   -6.16618   -6.01316
 kpt#  20, nband=  8, wtk=  1.00000, kpt=  0.3167  0.3167  0.0000 (reduced coord)
 -60.06086  -37.11719  -36.71400  -36.45427  -13.10742  -13.00268   -6.19865   -5.89201
 kpt#  21, nband=  8, wtk=  1.00000, kpt=  0.3333  0.3333  0.0000 (reduced coord)
 -60.02454  -37.10866  -36.71371  -36.46394  -13.09789  -12.98859   -6.20377   -5.79836
 kpt#  22, nband=  8, wtk=  1.00000, kpt=  0.3500  0.3000  0.0000 (reduced coord)
 -60.03598  -37.12652  -36.71377  -36.44496  -13.10554  -12.99978   -6.20707   -5.91048
 kpt#  23, nband=  8, wtk=  1.00000, kpt=  0.3667  0.2667  0.0000 (reduced coord)
 -60.10970  -37.14378  -36.71456  -36.42433  -13.13040  -13.02752   -6.22023   -6.08396
 kpt#  24, nband=  8, wtk=  1.00000, kpt=  0.3833  0.2333  0.0000 (reduced coord)
 -60.10346  -37.15927  -36.71516  -36.40219  -13.15799  -13.06321   -6.26186   -6.24047
 kpt#  25, nband=  8, wtk=  1.00000, kpt=  0.4000  0.2000  0.0000 (reduced coord)
 -60.12672  -37.17339  -36.71615  -36.38038  -13.19259  -13.10551   -6.42146   -6.28064
 kpt#  26, nband=  8, wtk=  1.00000, kpt=  0.4167  0.1667  0.0000 (reduced coord)
 -60.12091  -37.18562  -36.71708  -36.35955  -13.22625  -13.14898   -6.56302   -6.32374
 kpt#  27, nband=  8, wtk=  1.00000, kpt=  0.4333  0.1333  0.0000 (reduced coord)
 -60.10901  -37.19610  -36.71787  -36.34096  -13.25805  -13.18893   -6.68385   -6.36751
 kpt#  28, nband=  8, wtk=  1.00000, kpt=  0.4500  0.1000  0.0000 (reduced coord)
 -60.11012  -37.20424  -36.71876  -36.32552  -13.28787  -13.22132   -6.77736   -6.40670
 kpt#  29, nband=  8, wtk=  1.00000, kpt=  0.4667  0.0667  0.0000 (reduced coord)
 -60.13731  -37.21052  -36.71947  -36.31415  -13.30957  -13.25125   -6.84857   -6.43742
 kpt#  30, nband=  8, wtk=  1.00000, kpt=  0.4833  0.0333  0.0000 (reduced coord)
 -60.17214  -37.21424  -36.72019  -36.30708  -13.32764  -13.26651   -6.89029   -6.45871
 kpt#  31, nband=  8, wtk=  1.00000, kpt=  0.5000  0.0000  0.0000 (reduced coord)
 -60.18349  -37.21537  -36.72040  -36.30479  -13.33272  -13.27294   -6.90290   -6.46544
 kpt#  32, nband=  8, wtk=  1.00000, kpt=  0.5109  0.0217  0.0217 (reduced coord)
 -60.16923  -37.21332  -36.72052  -36.30529  -13.33849  -13.28262   -6.87693   -6.44503
 kpt#  33, nband=  8, wtk=  1.00000, kpt=  0.5217  0.0435  0.0435 (reduced coord)
 -60.14513  -37.20682  -36.72119  -36.30697  -13.35571  -13.31139   -6.79550   -6.38526
 kpt#  34, nband=  8, wtk=  1.00000, kpt=  0.5326  0.0652  0.0652 (reduced coord)
 -60.15294  -37.19669  -36.72234  -36.30999  -13.38704  -13.35801   -6.66926   -6.28967
 kpt#  35, nband=  8, wtk=  1.00000, kpt=  0.5435  0.0870  0.0870 (reduced coord)
 -60.17000  -37.18311  -36.72389  -36.31415  -13.43377  -13.41421   -6.50653   -6.15962
 kpt#  36, nband=  8, wtk=  1.00000, kpt=  0.5543  0.1087  0.1087 (reduced coord)
 -60.17038  -37.16657  -36.72551  -36.31923  -13.49893  -13.46549   -6.31848   -5.99891
 kpt#  37, nband=  8, wtk=  1.00000, kpt=  0.5652  0.1304  0.1304 (reduced coord)
 -60.16993  -37.14766  -36.72741  -36.32520  -13.57420  -13.51486   -6.11937   -5.81378
 kpt#  38, nband=  8, wtk=  1.00000, kpt=  0.5761  0.1522  0.1522 (reduced coord)
 -60.18698  -37.12740  -36.72952  -36.33207  -13.65133  -13.56538   -5.93321   -5.61274
 kpt#  39, nband=  8, wtk=  1.00000, kpt=  0.5870  0.1739  0.1739 (reduced coord)
 -60.17273  -37.10631  -36.73146  -36.33939  -13.72181  -13.61183   -5.78466   -5.38642
 kpt#  40, nband=  8, wtk=  1.00000, kpt=  0.5978  0.1957  0.1957 (reduced coord)
 -60.16697  -37.08514  -36.73343  -36.34749  -13.78610  -13.65388   -5.69511   -5.22779
 kpt#  41, nband=  8, wtk=  1.00000, kpt=  0.6087  0.2174  0.2174 (reduced coord)
 -60.17142  -37.06470  -36.73516  -36.35627  -13.83971  -13.69189   -5.66843   -5.09423
 kpt#  42, nband=  8, wtk=  1.00000, kpt=  0.6196  0.2391  0.2391 (reduced coord)
 -60.17968  -37.04585  -36.73651  -36.36572  -13.88130  -13.72203   -5.69122   -5.16009
 kpt#  43, nband=  8, wtk=  1.00000, kpt=  0.6304  0.2609  0.2609 (reduced coord)
 -60.21344  -37.02904  -36.73770  -36.37609  -13.91220  -13.74300   -5.74470   -5.23407
 kpt#  44, nband=  8, wtk=  1.00000, kpt=  0.6413  0.2826  0.2826 (reduced coord)
 -60.19740  -37.01414  -36.73811  -36.38710  -13.92349  -13.75228   -5.80798   -5.31520
 kpt#  45, nband=  8, wtk=  1.00000, kpt=  0.6522  0.3043  0.3043 (reduced coord)
 -60.20058  -37.00190  -36.73816  -36.39914  -13.92133  -13.75098   -5.87132   -5.39207
 kpt#  46, nband=  8, wtk=  1.00000, kpt=  0.6630  0.3261  0.3261 (reduced coord)
 -60.21162  -36.99236  -36.73784  -36.41213  -13.90294  -13.73908   -5.92634   -5.45335
 kpt#  47, nband=  8, wtk=  1.00000, kpt=  0.6739  0.3478  0.3478 (reduced coord)
 -60.19891  -36.98551  -36.73684  -36.42578  -13.86859  -13.71438   -5.96867   -5.50849
 kpt#  48, nband=  8, wtk=  1.00000, kpt=  0.6848  0.3696  0.3696 (reduced coord)
 -60.17956  -36.98140  -36.73531  -36.44001  -13.81885  -13.67852   -5.99736   -5.54864
 kpt#  49, nband=  8, wtk=  1.00000, kpt=  0.6957  0.3913  0.3913 (reduced coord)
 -60.17852  -36.98019  -36.73349  -36.45438  -13.75766  -13.63358   -6.01487   -5.57925
 kpt#  50, nband=  8, wtk=  1.00000, kpt=  0.7065  0.4130  0.4130 (reduced coord)
 -60.17997  -36.98194  -36.73133  -36.46813  -13.68527  -13.58003   -6.02271   -5.61182
 kpt#  51, nband=  8, wtk=  1.00000, kpt=  0.7174  0.4348  0.4348 (reduced coord)
 -60.18120  -36.98633  -36.72901  -36.48063  -13.60205  -13.52102   -6.02574   -5.64626
 kpt#  52, nband=  8, wtk=  1.00000, kpt=  0.7283  0.4565  0.4565 (reduced coord)
 -60.16309  -36.99353  -36.72651  -36.49090  -13.51321  -13.45521   -6.02856   -5.69561
 kpt#  53, nband=  8, wtk=  1.00000, kpt=  0.7391  0.4783  0.4783 (reduced coord)
 -60.14264  -37.00299  -36.72397  -36.49855  -13.42290  -13.38730   -6.03954   -5.76774
 kpt#  54, nband=  8, wtk=  1.00000, kpt=  0.7500  0.5000  0.5000 (reduced coord)
 -60.10980  -37.01417  -36.72175  -36.50293  -13.33658  -13.31686   -6.06524   -5.86440
 kpt#  55, nband=  8, wtk=  1.00000, kpt=  0.7609  0.5217  0.5217 (reduced coord)
 -60.12233  -37.02706  -36.71972  -36.50429  -13.27459  -13.24388   -6.12078   -5.97354
 kpt#  56, nband=  8, wtk=  1.00000, kpt=  0.7717  0.5435  0.5435 (reduced coord)
 -60.12433  -37.04028  -36.71816  -36.50222  -13.22849  -13.17734   -6.19923   -6.07983
 kpt#  57, nband=  8, wtk=  1.00000, kpt=  0.7826  0.5652  0.5652 (reduced coord)
 -60.10095  -37.05251  -36.71691  -36.49703  -13.19653  -13.12977   -6.28878   -6.16346
 kpt#  58, nband=  8, wtk=  1.00000, kpt=  0.7935  0.5870  0.5870 (reduced coord)
 -60.10004  -37.06346  -36.71641  -36.48892  -13.18456  -13.10937   -6.37155   -6.21421
 kpt#  59, nband=  8, wtk=  1.00000, kpt=  0.8043  0.6087  0.6087 (reduced coord)
 -60.09997  -37.07187  -36.71668  -36.47830  -13.19387  -13.12011   -6.42729   -6.22255
 kpt#  60, nband=  8, wtk=  1.00000, kpt=  0.8152  0.6304  0.6304 (reduced coord)
 -60.10943  -37.07716  -36.71784  -36.46554  -13.22554  -13.16579   -6.44043   -6.18337
 kpt#  61, nband=  8, wtk=  1.00000, kpt=  0.8261  0.6522  0.6522 (reduced coord)
 -60.12334  -37.07878  -36.71980  -36.45097  -13.28185  -13.24330   -6.40519   -6.09404
 kpt#  62, nband=  8, wtk=  1.00000, kpt=  0.8370  0.6739  0.6739 (reduced coord)
 -60.13984  -37.07665  -36.72231  -36.43487  -13.36536  -13.34598   -6.31693   -5.95570
 kpt#  63, nband=  8, wtk=  1.00000, kpt=  0.8478  0.6957  0.6957 (reduced coord)
 -60.17431  -37.07033  -36.72578  -36.41769  -13.49334  -13.44912   -6.18260   -5.77466
 kpt#  64, nband=  8, wtk=  1.00000, kpt=  0.8587  0.7174  0.7174 (reduced coord)
 -60.18544  -37.05989  -36.72982  -36.39941  -13.64625  -13.55749   -6.00739   -5.55738
 kpt#  65, nband=  8, wtk=  1.00000, kpt=  0.8696  0.7391  0.7391 (reduced coord)
 -60.17914  -37.04542  -36.73450  -36.38040  -13.81206  -13.67284   -5.81049   -5.31720
 kpt#  66, nband=  8, wtk=  1.00000, kpt=  0.8804  0.7609  0.7609 (reduced coord)
 -60.20783  -37.02836  -36.73978  -36.36110  -13.98606  -13.79499   -5.63196   -5.05975
 kpt#  67, nband=  8, wtk=  1.00000, kpt=  0.8913  0.7826  0.7826 (reduced coord)
 -60.22381  -37.00893  -36.74534  -36.34167  -14.16054  -13.91786   -5.54247   -4.85895
 kpt#  68, nband=  8, wtk=  1.00000, kpt=  0.9022  0.8043  0.8043 (reduced coord)
 -60.24510  -36.98802  -36.75114  -36.32246  -14.33182  -14.03824   -5.57909   -4.66321
 kpt#  69, nband=  8, wtk=  1.00000, kpt=  0.9130  0.8261  0.8261 (reduced coord)
 -60.25167  -36.96644  -36.75678  -36.30371  -14.49307  -14.15288   -5.68599   -4.51677
 kpt#  70, nband=  8, wtk=  1.00000, kpt=  0.9239  0.8478  0.8478 (reduced coord)
 -60.26062  -36.94515  -36.76240  -36.28570  -14.64396  -14.25913   -5.82027   -4.44866
 kpt#  71, nband=  8, wtk=  1.00000, kpt=  0.9348  0.8696  0.8696 (reduced coord)
 -60.27737  -36.92490  -36.76774  -36.26901  -14.78126  -14.35442   -5.96056   -4.36402
 kpt#  72, nband=  8, wtk=  1.00000, kpt=  0.9457  0.8913  0.8913 (reduced coord)
 -60.26479  -36.90635  -36.77233  -36.25375  -14.89908  -14.43707   -6.09093   -4.28641
 kpt#  73, nband=  8, wtk=  1.00000, kpt=  0.9565  0.9130  0.9130 (reduced coord)
 -60.26831  -36.89031  -36.77638  -36.24066  -14.99920  -14.50689   -6.20826   -4.21788
 kpt#  74, nband=  8, wtk=  1.00000, kpt=  0.9674  0.9348  0.9348 (reduced coord)
 -60.26714  -36.87733  -36.77970  -36.22993  -15.07806  -14.56265   -6.30539   -4.16336
 kpt#  75, nband=  8, wtk=  1.00000, kpt=  0.9783  0.9565  0.9565 (reduced coord)
 -60.27967  -36.86781  -36.78223  -36.22208  -15.13725  -14.60354   -6.37877   -4.12420
 kpt#  76, nband=  8, wtk=  1.00000, kpt=  0.9891  0.9783  0.9783 (reduced coord)
 -60.28259  -36.86194  -36.78383  -36.21728  -15.17355  -14.62774   -6.42386   -4.10064
 kpt#  77, nband=  8, wtk=  1.00000, kpt=  1.0000  1.0000  1.0000 (reduced coord)
 -60.30098  -36.86023  -36.78441  -36.21576  -15.18757  -14.63652   -6.44045   -4.09260
 
== END DATASET(S) ==============================================================
================================================================================
  
 -outvars: echo values of variables after computation  --------
            acell      5.9526373186E+00  5.9526373186E+00  3.7794522658E+01 Bohr
              amu      9.59400000E+01  3.20660000E+01
      chksymbreak           0
             ecut      1.20000000E+01 Hartree
           enunit1          0
           enunit2          1
           etotal1    -9.1752283410E+01
            fcart1    -1.4795593155E-02  8.5330553409E-03 -1.6145528859E-04
                       7.3989240421E-03 -4.2618628316E-03  7.7765506746E-02
                       7.3966691126E-03 -4.2711925093E-03 -7.7604051457E-02
-          fftalg         512
           getden1          0
           getden2         -1
             iscf1          7
             iscf2         -2
           istwfk1       2    0
           istwfk2       2    0    0    0    0    0    0    0    0    0
                         0    0    0    0    0    0    0    0    0    0
                         0    0    0    0    0    0    0    0    0    0
                         3    0    0    0    0    0    0    0    0    0
                         0    0    0    0    0    0    0    0    0    0
                       outvar_i_n : Printing only first  50 k-points.
              ixc          11
           jdtset        1    2
              kpt1     0.00000000E+00  0.00000000E+00  0.00000000E+00
                       3.33333333E-01  0.00000000E+00  0.00000000E+00
              kpt2     0.00000000E+00  0.00000000E+00  0.00000000E+00
                       1.66666667E-02  1.66666667E-02  0.00000000E+00
                       3.33333333E-02  3.33333333E-02  0.00000000E+00
                       5.00000000E-02  5.00000000E-02  0.00000000E+00
                       6.66666667E-02  6.66666667E-02  0.00000000E+00
                       8.33333333E-02  8.33333333E-02  0.00000000E+00
                       1.00000000E-01  1.00000000E-01  0.00000000E+00
                       1.16666667E-01  1.16666667E-01  0.00000000E+00
                       1.33333333E-01  1.33333333E-01  0.00000000E+00
                       1.50000000E-01  1.50000000E-01  0.00000000E+00
                       1.66666667E-01  1.66666667E-01  0.00000000E+00
                       1.83333333E-01  1.83333333E-01  0.00000000E+00
                       2.00000000E-01  2.00000000E-01  0.00000000E+00
                       2.16666667E-01  2.16666667E-01  0.00000000E+00
                       2.33333333E-01  2.33333333E-01  0.00000000E+00
                       2.50000000E-01  2.50000000E-01  0.00000000E+00
                       2.66666667E-01  2.66666667E-01  0.00000000E+00
                       2.83333333E-01  2.83333333E-01  0.00000000E+00
                       3.00000000E-01  3.00000000E-01  0.00000000E+00
                       3.16666667E-01  3.16666667E-01  0.00000000E+00
                       3.33333333E-01  3.33333333E-01  0.00000000E+00
                       3.50000000E-01  3.00000000E-01  0.00000000E+00
                       3.66666667E-01  2.66666667E-01  0.00000000E+00
                       3.83333333E-01  2.33333333E-01  0.00000000E+00
                       4.00000000E-01  2.00000000E-01  0.00000000E+00
                       4.16666667E-01  1.66666667E-01  0.00000000E+00
                       4.33333333E-01  1.33333333E-01  0.00000000E+00
                       4.50000000E-01  1.00000000E-01  0.00000000E+00
                       4.66666667E-01  6.66666667E-02  0.00000000E+00
                       4.83333333E-01  3.33333333E-02  0.00000000E+00
                       5.00000000E-01  0.00000000E+00  0.00000000E+00
                       5.10869565E-01  2.17391304E-02  2.17391304E-02
                       5.21739130E-01  4.34782609E-02  4.34782609E-02
                       5.32608696E-01  6.52173913E-02  6.52173913E-02
                       5.43478261E-01  8.69565217E-02  8.69565217E-02
                       5.54347826E-01  1.08695652E-01  1.08695652E-01
                       5.65217391E-01  1.30434783E-01  1.30434783E-01
                       5.76086957E-01  1.52173913E-01  1.52173913E-01
                       5.86956522E-01  1.73913043E-01  1.73913043E-01
                       5.97826087E-01  1.95652174E-01  1.95652174E-01
                       6.08695652E-01  2.17391304E-01  2.17391304E-01
                       6.19565217E-01  2.39130435E-01  2.39130435E-01
                       6.30434783E-01  2.60869565E-01  2.60869565E-01
                       6.41304348E-01  2.82608696E-01  2.82608696E-01
                       6.52173913E-01  3.04347826E-01  3.04347826E-01
                       6.63043478E-01  3.26086957E-01  3.26086957E-01
                       6.73913043E-01  3.47826087E-01  3.47826087E-01
                       6.84782609E-01  3.69565217E-01  3.69565217E-01
                       6.95652174E-01  3.91304348E-01  3.91304348E-01
                       7.06521739E-01  4.13043478E-01  4.13043478E-01
                       outvar_i_n : Printing only first  50 k-points.
           kptopt1          1
           kptopt2         -3
         kptrlatt        3    0    0      0    1    0      0    0    1
          kptrlen1     5.95263732E+00
          kptrlen2     3.00000000E+01
P           mkmem1          2
P           mkmem2         77
            natom           3
            nband1         14
            nband2          8
           nbdbuf1          0
           nbdbuf2          2
           ndtset           2
           ndivsm1          0
           ndivsm2         10
            ngfft          20      20     120
             nkpt1          2
             nkpt2         77
            nstep          10
             nsym           1
           ntypat           2
              occ      2.000000  2.000000  2.000000  2.000000  2.000000  2.000000
                       2.000000  2.000000  2.000000  2.000000  2.000000  2.000000
                       2.000000  0.000000
            rprim      5.0000000000E-01 -8.6602540378E-01  0.0000000000E+00
                       5.0000000000E-01  8.6602540378E-01  0.0000000000E+00
                       0.0000000000E+00  0.0000000000E+00  1.0000000000E+00
           shiftk1     0.00000000E+00  0.00000000E+00  0.00000000E+00
           shiftk2     5.00000000E-01  5.00000000E-01  5.00000000E-01
          spgroup           1
           strten1     6.7451113053E-04  5.7665175887E-04  1.1796823235E-03
                       5.8327925101E-08  3.4044112007E-08 -8.4780142943E-05
           toldfe1     1.00000000E-06 Hartree
           toldfe2     0.00000000E+00 Hartree
           tolwfr1     0.00000000E+00
           tolwfr2     1.00000000E-12
            typat      1  2  2
              wtk1       0.33333    0.66667
              wtk2       1.00000    1.00000    1.00000    1.00000    1.00000    1.00000
                         1.00000    1.00000    1.00000    1.00000    1.00000    1.00000
                         1.00000    1.00000    1.00000    1.00000    1.00000    1.00000
                         1.00000    1.00000    1.00000    1.00000    1.00000    1.00000
                         1.00000    1.00000    1.00000    1.00000    1.00000    1.00000
                         1.00000    1.00000    1.00000    1.00000    1.00000    1.00000
                         1.00000    1.00000    1.00000    1.00000    1.00000    1.00000
                         1.00000    1.00000    1.00000    1.00000    1.00000    1.00000
                         1.00000    1.00000
                       outvars : Printing only first  50 k-points.
           xangst      1.5750000000E+00  9.0932667397E-01  0.0000000000E+00
                       1.5750000000E+00 -9.0932667397E-01 -1.8388847000E+00
                       1.5750000000E+00 -9.0932667397E-01  1.8388847000E+00
            xcart      2.9763186593E+00  1.7183783791E+00  0.0000000000E+00
                       2.9763186593E+00 -1.7183783791E+00 -3.4749884730E+00
                       2.9763186593E+00 -1.7183783791E+00  3.4749884730E+00
             xred      3.3333333333E-01  6.6666666667E-01  0.0000000000E+00
                       6.6666666667E-01  3.3333333333E-01 -9.1944235000E-02
                       6.6666666667E-01  3.3333333333E-01  9.1944235000E-02
            znucl       42.00000   16.00000
 
================================================================================


- Timing analysis has been suppressed with timopt=0



================================================================================

 Suggested references for the acknowledgment of ABINIT usage.

 The users of ABINIT have little formal obligations with respect to the ABINIT group
 (those specified in the GNU General Public License, http://www.gnu.org/copyleft/gpl.txt).
 However, it is common practice in the scientific literature,
 to acknowledge the efforts of people that have made the research possible.
 In this spirit, please find below suggested citations of work written by ABINIT developers,
 corresponding to implementations inside of ABINIT that you have used in the present run.
 Note also that it will be of great value to readers of publications presenting these results,
 to read papers enabling them to understand the theoretical formalism and details
 of the ABINIT implementation.
 For information on why they are suggested, see also https://docs.abinit.org/theory/acknowledgments.
-
- [1] The Abinit project: Impact, environment and recent developments.
- Computer Phys. Comm. 248, 107042 (2020).
- X.Gonze, B. Amadon, G. Antonius, F.Arnardi, L.Baguet, J.-M.Beuken,
- J.Bieder, F.Bottin, J.Bouchet, E.Bousquet, N.Brouwer, F.Bruneval,
- G.Brunin, T.Cavignac, J.-B. Charraud, Wei Chen, M.Cote, S.Cottenier,
- J.Denier, G.Geneste, Ph.Ghosez, M.Giantomassi, Y.Gillet, O.Gingras,
- D.R.Hamann, G.Hautier, Xu He, N.Helbig, N.Holzwarth, Y.Jia, F.Jollet,
- W.Lafargue-Dit-Hauret, K.Lejaeghere, M.A.L.Marques, A.Martin, C.Martins,
- H.P.C. Miranda, F.Naccarato, K. Persson, G.Petretto, V.Planes, Y.Pouillon,
- S.Prokhorenko, F.Ricci, G.-M.Rignanese, A.H.Romero, M.M.Schmitt, M.Torrent,
- M.J.van Setten, B.Van Troeye, M.J.Verstraete, G.Zerah and J.W.Zwanzig
- Comment: the fifth generic paper describing the ABINIT project.
- Note that a version of this paper, that is not formatted for Computer Phys. Comm. 
- is available at https://www.abinit.org/sites/default/files/ABINIT20.pdf .
- The licence allows the authors to put it on the Web.
- DOI and bibtex: see https://docs.abinit.org/theory/bibliography/#gonze2020
-
- [2] Optimized norm-conserving Vanderbilt pseudopotentials.
- D.R. Hamann, Phys. Rev. B 88, 085117 (2013).
- Comment: Some pseudopotential generated using the ONCVPSP code were used.
- DOI and bibtex: see https://docs.abinit.org/theory/bibliography/#hamann2013
-
- [3] ABINIT: Overview, and focus on selected capabilities
- J. Chem. Phys. 152, 124102 (2020).
- A. Romero, D.C. Allan, B. Amadon, G. Antonius, T. Applencourt, L.Baguet,
- J.Bieder, F.Bottin, J.Bouchet, E.Bousquet, F.Bruneval,
- G.Brunin, D.Caliste, M.Cote,
- J.Denier, C. Dreyer, Ph.Ghosez, M.Giantomassi, Y.Gillet, O.Gingras,
- D.R.Hamann, G.Hautier, F.Jollet, G. Jomard,
- A.Martin, 
- H.P.C. Miranda, F.Naccarato, G.Petretto, N.A. Pike, V.Planes,
- S.Prokhorenko, T. Rangel, F.Ricci, G.-M.Rignanese, M.Royo, M.Stengel, M.Torrent,
- M.J.van Setten, B.Van Troeye, M.J.Verstraete, J.Wiktor, J.W.Zwanziger, and X.Gonze.
- Comment: a global overview of ABINIT, with focus on selected capabilities .
- Note that a version of this paper, that is not formatted for J. Chem. Phys 
- is available at https://www.abinit.org/sites/default/files/ABINIT20_JPC.pdf .
- The licence allows the authors to put it on the Web.
- DOI and bibtex: see https://docs.abinit.org/theory/bibliography/#romero2020
-
- [4] Recent developments in the ABINIT software package.
- Computer Phys. Comm. 205, 106 (2016).
- X.Gonze, F.Jollet, F.Abreu Araujo, D.Adams, B.Amadon, T.Applencourt,
- C.Audouze, J.-M.Beuken, J.Bieder, A.Bokhanchuk, E.Bousquet, F.Bruneval
- D.Caliste, M.Cote, F.Dahm, F.Da Pieve, M.Delaveau, M.Di Gennaro,
- B.Dorado, C.Espejo, G.Geneste, L.Genovese, A.Gerossier, M.Giantomassi,
- Y.Gillet, D.R.Hamann, L.He, G.Jomard, J.Laflamme Janssen, S.Le Roux,
- A.Levitt, A.Lherbier, F.Liu, I.Lukacevic, A.Martin, C.Martins,
- M.J.T.Oliveira, S.Ponce, Y.Pouillon, T.Rangel, G.-M.Rignanese,
- A.H.Romero, B.Rousseau, O.Rubel, A.A.Shukri, M.Stankovski, M.Torrent,
- M.J.Van Setten, B.Van Troeye, M.J.Verstraete, D.Waroquier, J.Wiktor,
- B.Xu, A.Zhou, J.W.Zwanziger.
- Comment: the fourth generic paper describing the ABINIT project.
- Note that a version of this paper, that is not formatted for Computer Phys. Comm. 
- is available at https://www.abinit.org/sites/default/files/ABINIT16.pdf .
- The licence allows the authors to put it on the Web.
- DOI and bibtex: see https://docs.abinit.org/theory/bibliography/#gonze2016
-
- And optionally:
-
- [5] ABINIT: First-principles approach of materials and nanosystem properties.
- Computer Phys. Comm. 180, 2582-2615 (2009).
- X. Gonze, B. Amadon, P.-M. Anglade, J.-M. Beuken, F. Bottin, P. Boulanger, F. Bruneval,
- D. Caliste, R. Caracas, M. Cote, T. Deutsch, L. Genovese, Ph. Ghosez, M. Giantomassi
- S. Goedecker, D.R. Hamann, P. Hermet, F. Jollet, G. Jomard, S. Leroux, M. Mancini, S. Mazevet,
- M.J.T. Oliveira, G. Onida, Y. Pouillon, T. Rangel, G.-M. Rignanese, D. Sangalli, R. Shaltaf,
- M. Torrent, M.J. Verstraete, G. Zerah, J.W. Zwanziger
- Comment: the third generic paper describing the ABINIT project.
- Note that a version of this paper, that is not formatted for Computer Phys. Comm. 
- is available at https://www.abinit.org/sites/default/files/ABINIT_CPC_v10.pdf .
- The licence allows the authors to put it on the Web.
- DOI and bibtex: see https://docs.abinit.org/theory/bibliography/#gonze2009
-
- Proc.   0 individual time (sec): cpu=         24.4  wall=         29.7
 
================================================================================
 
 Calculation completed.
.Delivered  33 WARNINGs and  10 COMMENTs to log file.
+Overall time at end (sec) : cpu=         24.4  wall=         29.7
