
.Version 9.10.3 of ABINIT 
.(MPI version, prepared for a x86_64_linux_intel2021.6 computer) 

.Copyright (C) 1998-2022 ABINIT group . 
 ABINIT comes with ABSOLUTELY NO WARRANTY.
 It is free software, and you are welcome to redistribute it
 under certain conditions (GNU General Public License,
 see ~abinit/COPYING or http://www.gnu.org/copyleft/gpl.txt).

 ABINIT is a project of the Universite Catholique de Louvain,
 Corning Inc. and other collaborators, see ~abinit/doc/developers/contributors.txt .
 Please read https://docs.abinit.org/theory/acknowledgments for suggested
 acknowledgments of the ABINIT effort.
 For more information, see https://www.abinit.org .

.Starting date : Wed  6 May 2025.
- ( at 08h15 )
  
- input  file    -> mos2.abi
- output file    -> mos2.abo
- root for input  files -> mos2i
- root for output files -> mos2o
 
 
 DATASET    1 : space group P1 (#  1); Bravais aP (primitive triclinic)
================================================================================
 Values of the parameters that define the memory need for DATASET  1.
     intxc =       0    ionmov =       0      iscf =       7    lmnmax =       6
     lnmax =       6     mgfft =     180  mpssoang =       3    mqgrid =    8507
     natom =       3  nloc_mem =       1    nspden =       1   nspinor =       1
    nsppol =       1      nsym =       1    n1xccc =    2501    ntypat =       2
    occopt =       1   xclevel =       2
-    mband =          14        mffmem =           1         mkmem =          20
       mpw =        6948          nfft =      162000          nkpt =          20
================================================================================
P This job should need less than                      82.121 Mbytes of memory.
  Rough estimation (10% accuracy) of disk space for files :
_ WF disk file :     29.687 Mbytes ; DEN or POT disk file :      1.238 Mbytes.
================================================================================
 
 
 DATASET    2 : space group P1 (#  1); Bravais aP (primitive triclinic)
================================================================================
 Values of the parameters that define the memory need for DATASET  2.
     intxc =       0    ionmov =       0      iscf =      -2    lmnmax =       6
     lnmax =       6     mgfft =     180  mpssoang =       3    mqgrid =    8507
     natom =       3  nloc_mem =       1    nspden =       1   nspinor =       1
    nsppol =       1      nsym =       1    n1xccc =    2501    ntypat =       2
    occopt =       1   xclevel =       2
-    mband =           8        mffmem =           1         mkmem =          68
       mpw =        6965          nfft =      162000          nkpt =          68
================================================================================
P This job should need less than                      94.138 Mbytes of memory.
  Rough estimation (10% accuracy) of disk space for files :
_ WF disk file :     57.817 Mbytes ; DEN or POT disk file :      1.238 Mbytes.
================================================================================
 
--------------------------------------------------------------------------------
------------- Echo of variables that govern the present computation ------------
--------------------------------------------------------------------------------
-
- outvars: echo of selected default values                                      
-   iomode0 =  0 , fftalg0 =512 , wfoptalg0 =  0
-
- outvars: echo of global parameters not present in the input file              
-  max_nthreads =    0
-
 -outvars: echo values of preprocessed input variables --------
            acell      5.9526373186E+00  5.9526373186E+00  3.7794522658E+01 Bohr
              amu      9.59400000E+01  3.20660000E+01
      chksymbreak           0
             ecut      2.50000000E+01 Hartree
           enunit1          0
           enunit2          1
-          fftalg         512
           getden1          0
           getden2         -1
             iscf1          7
             iscf2         -2
           istwfk1       4    0    0    5    0    0    0    0    0    0
                         0    0    0    0    0    0    8    0    0    9
           istwfk2       2    0    0    0    0    0    0    0    0    0
                         0    0    0    0    0    0    0    3    0    0
                         0    0    0    0    0    0    0    0    0    0
                         0    0    0    0    0    0    0    0    0    0
                         0    0    0    0    0    0    0    0    0    0
                       outvar_i_n : Printing only first  50 k-points.
              ixc          11
           jdtset        1    2
              kpt1     0.00000000E+00  0.00000000E+00  5.00000000E-01
                       1.66666667E-01  0.00000000E+00  5.00000000E-01
                       3.33333333E-01  0.00000000E+00  5.00000000E-01
                       5.00000000E-01  0.00000000E+00  5.00000000E-01
                       0.00000000E+00  1.66666667E-01  5.00000000E-01
                       1.66666667E-01  1.66666667E-01  5.00000000E-01
                       3.33333333E-01  1.66666667E-01  5.00000000E-01
                       5.00000000E-01  1.66666667E-01  5.00000000E-01
                      -3.33333333E-01  1.66666667E-01  5.00000000E-01
                      -1.66666667E-01  1.66666667E-01  5.00000000E-01
                       0.00000000E+00  3.33333333E-01  5.00000000E-01
                       1.66666667E-01  3.33333333E-01  5.00000000E-01
                       3.33333333E-01  3.33333333E-01  5.00000000E-01
                       5.00000000E-01  3.33333333E-01  5.00000000E-01
                      -3.33333333E-01  3.33333333E-01  5.00000000E-01
                      -1.66666667E-01  3.33333333E-01  5.00000000E-01
                       0.00000000E+00  5.00000000E-01  5.00000000E-01
                       1.66666667E-01  5.00000000E-01  5.00000000E-01
                       3.33333333E-01  5.00000000E-01  5.00000000E-01
                       5.00000000E-01  5.00000000E-01  5.00000000E-01
              kpt2     0.00000000E+00  0.00000000E+00  0.00000000E+00
                       2.94117647E-02  0.00000000E+00  0.00000000E+00
                       5.88235294E-02  0.00000000E+00  0.00000000E+00
                       8.82352941E-02  0.00000000E+00  0.00000000E+00
                       1.17647059E-01  0.00000000E+00  0.00000000E+00
                       1.47058824E-01  0.00000000E+00  0.00000000E+00
                       1.76470588E-01  0.00000000E+00  0.00000000E+00
                       2.05882353E-01  0.00000000E+00  0.00000000E+00
                       2.35294118E-01  0.00000000E+00  0.00000000E+00
                       2.64705882E-01  0.00000000E+00  0.00000000E+00
                       2.94117647E-01  0.00000000E+00  0.00000000E+00
                       3.23529412E-01  0.00000000E+00  0.00000000E+00
                       3.52941176E-01  0.00000000E+00  0.00000000E+00
                       3.82352941E-01  0.00000000E+00  0.00000000E+00
                       4.11764706E-01  0.00000000E+00  0.00000000E+00
                       4.41176471E-01  0.00000000E+00  0.00000000E+00
                       4.70588235E-01  0.00000000E+00  0.00000000E+00
                       5.00000000E-01  0.00000000E+00  0.00000000E+00
                       4.83333333E-01  3.33333333E-02  0.00000000E+00
                       4.66666667E-01  6.66666667E-02  0.00000000E+00
                       4.50000000E-01  1.00000000E-01  0.00000000E+00
                       4.33333333E-01  1.33333333E-01  0.00000000E+00
                       4.16666667E-01  1.66666667E-01  0.00000000E+00
                       4.00000000E-01  2.00000000E-01  0.00000000E+00
                       3.83333333E-01  2.33333333E-01  0.00000000E+00
                       3.66666667E-01  2.66666667E-01  0.00000000E+00
                       3.50000000E-01  3.00000000E-01  0.00000000E+00
                       3.33333333E-01  3.33333333E-01  0.00000000E+00
                       3.50000000E-01  3.50000000E-01  2.50000000E-02
                       3.66666667E-01  3.66666667E-01  5.00000000E-02
                       3.83333333E-01  3.83333333E-01  7.50000000E-02
                       4.00000000E-01  4.00000000E-01  1.00000000E-01
                       4.16666667E-01  4.16666667E-01  1.25000000E-01
                       4.33333333E-01  4.33333333E-01  1.50000000E-01
                       4.50000000E-01  4.50000000E-01  1.75000000E-01
                       4.66666667E-01  4.66666667E-01  2.00000000E-01
                       4.83333333E-01  4.83333333E-01  2.25000000E-01
                       5.00000000E-01  5.00000000E-01  2.50000000E-01
                       5.16666667E-01  5.16666667E-01  2.75000000E-01
                       5.33333333E-01  5.33333333E-01  3.00000000E-01
                       5.50000000E-01  5.50000000E-01  3.25000000E-01
                       5.66666667E-01  5.66666667E-01  3.50000000E-01
                       5.83333333E-01  5.83333333E-01  3.75000000E-01
                       6.00000000E-01  6.00000000E-01  4.00000000E-01
                       6.16666667E-01  6.16666667E-01  4.25000000E-01
                       6.33333333E-01  6.33333333E-01  4.50000000E-01
                       6.50000000E-01  6.50000000E-01  4.75000000E-01
                       6.66666667E-01  6.66666667E-01  5.00000000E-01
                       6.83333333E-01  6.83333333E-01  5.25000000E-01
                       7.00000000E-01  7.00000000E-01  5.50000000E-01
                       outvar_i_n : Printing only first  50 k-points.
           kptopt1          1
           kptopt2         -3
         kptrlatt        6    0    0      0    6    0      0    0    1
          kptrlen1     3.57158239E+01
          kptrlen2     3.00000000E+01
P           mkmem1         20
P           mkmem2         68
            natom           3
            nband1         14
            nband2          8
           nbdbuf1          0
           nbdbuf2          2
           ndtset           2
           ndivsm1          0
           ndivsm2         10
            ngfft          30      30     180
             nkpt1         20
             nkpt2         68
            nstep          10
             nsym           1
           ntypat           2
              occ      2.000000  2.000000  2.000000  2.000000  2.000000  2.000000
                       2.000000  2.000000  2.000000  2.000000  2.000000  2.000000
                       2.000000  0.000000
            rprim      5.0000000000E-01 -8.6602540378E-01  0.0000000000E+00
                       5.0000000000E-01  8.6602540378E-01  0.0000000000E+00
                       0.0000000000E+00  0.0000000000E+00  1.0000000000E+00
           shiftk1     0.00000000E+00  0.00000000E+00  5.00000000E-01
           shiftk2     5.00000000E-01  5.00000000E-01  5.00000000E-01
          spgroup           1
           toldfe1     1.00000000E-06 Hartree
           toldfe2     0.00000000E+00 Hartree
           tolwfr1     0.00000000E+00
           tolwfr2     1.00000000E-12
            typat      1  2  2
              wtk1       0.02778    0.05556    0.05556    0.02778    0.05556    0.05556
                         0.05556    0.05556    0.05556    0.05556    0.05556    0.05556
                         0.05556    0.05556    0.05556    0.05556    0.02778    0.05556
                         0.05556    0.02778
              wtk2       1.00000    1.00000    1.00000    1.00000    1.00000    1.00000
                         1.00000    1.00000    1.00000    1.00000    1.00000    1.00000
                         1.00000    1.00000    1.00000    1.00000    1.00000    1.00000
                         1.00000    1.00000    1.00000    1.00000    1.00000    1.00000
                         1.00000    1.00000    1.00000    1.00000    1.00000    1.00000
                         1.00000    1.00000    1.00000    1.00000    1.00000    1.00000
                         1.00000    1.00000    1.00000    1.00000    1.00000    1.00000
                         1.00000    1.00000    1.00000    1.00000    1.00000    1.00000
                         1.00000    1.00000
                       outvars : Printing only first  50 k-points.
           xangst      1.5750000000E+00  9.0932667397E-01  0.0000000000E+00
                       1.5750000000E+00 -9.0932667397E-01 -1.8388847000E+00
                       1.5750000000E+00 -9.0932667397E-01  1.8388847000E+00
            xcart      2.9763186593E+00  1.7183783791E+00  0.0000000000E+00
                       2.9763186593E+00 -1.7183783791E+00 -3.4749884730E+00
                       2.9763186593E+00 -1.7183783791E+00  3.4749884730E+00
             xred      3.3333333333E-01  6.6666666667E-01  0.0000000000E+00
                       6.6666666667E-01  3.3333333333E-01 -9.1944235000E-02
                       6.6666666667E-01  3.3333333333E-01  9.1944235000E-02
            znucl       42.00000   16.00000
 
================================================================================
 
 chkinp: Checking input parameters for consistency, jdtset=   1.
 
 chkinp: Checking input parameters for consistency, jdtset=   2.
 
================================================================================
== DATASET  1 ==================================================================
-   mpi_nproc: 1, omp_nthreads: -1 (-1 if OMP is not activated)
 

--- !DatasetInfo
iteration_state: {dtset: 1, }
dimensions: {natom: 3, nkpt: 20, mband: 14, nsppol: 1, nspinor: 1, nspden: 1, mpw: 6948, }
cutoff_energies: {ecut:  25.0, pawecutdg:  -1.0, }
electrons: {nelect:   2.60000000E+01, charge:   0.00000000E+00, occopt:   1.00000000E+00, tsmear:   1.00000000E-02, }
meta: {optdriver: 0, ionmov: 0, optcell: 0, iscf: 7, paral_kgb: 0, }
...

 Exchange-correlation functional for the present dataset will be:
  GGA: Perdew-Burke-Ernzerhof functional - ixc=11
 Citation for XC functional:
  J.P.Perdew, K.Burke, M.Ernzerhof, PRL 77, 3865 (1996)
 
 Real(R)+Recip(G) space primitive vectors, cartesian coordinates (Bohr,Bohr^-1):
 R(1)=  2.9763187 -5.1551351  0.0000000  G(1)=  0.1679928 -0.0969907  0.0000000
 R(2)=  2.9763187  5.1551351  0.0000000  G(2)=  0.1679928  0.0969907  0.0000000
 R(3)=  0.0000000  0.0000000 37.7945227  G(3)=  0.0000000  0.0000000  0.0264589
 Unit cell volume ucvol=  1.1597873E+03 bohr^3
 Angles (23,13,12)=  9.00000000E+01  9.00000000E+01  1.20000000E+02 degrees
 
 getcut: wavevector=  0.0000  0.0000  0.0000  ngfft=  30  30 180
         ecut(hartree)=     25.000   => boxcut(ratio)=   2.11597
 
--- Pseudopotential description ------------------------------------------------
- pspini: atom type   1  psp file is ./persudo/Mo.psp8
- pspatm: opening atomic psp file    ./persudo/Mo.psp8
- Mo    ONCVPSP-3.2.3.1  r_core=   1.45541   1.45541   1.35488
- 42.00000  14.00000    170510                znucl, zion, pspdat
    8   11    2    4       600   0.00000      pspcod,pspxc,lmax,lloc,mmax,r2well
    5.99000000000000    3.00000000000000    0.00000000000000   rchrg,fchrg,qchrg
     nproj     2     2     2
     extension_switch     1
  pspatm : epsatm=   15.95693586
         --- l  ekb(1:nproj) -->
             0   13.833287    1.350687
             1    8.015347    1.134034
             2    2.765699    0.969071
 pspatm: atomic psp has been read  and splines computed
 
- pspini: atom type   2  psp file is ./persudo/S.psp8
- pspatm: opening atomic psp file    ./persudo/S.psp8
- S     ONCVPSP-4.0.1  r_core=   1.45687   1.45687   1.45687
- 16.00000   6.00000    220131                znucl, zion, pspdat
    8   11    2    4       600   0.00000      pspcod,pspxc,lmax,lloc,mmax,r2well
    5.99000000000000    6.00000000000000    0.00000000000000   rchrg,fchrg,qchrg
     nproj     2     2     2
     extension_switch     1
  pspatm : epsatm=    9.04179351
         --- l  ekb(1:nproj) -->
             0    6.774234    0.542270
             1    3.022426    0.737017
             2   -5.033160   -1.531047
 pspatm: atomic psp has been read  and splines computed
 
   8.85053595E+02                                ecore*ucvol(ha*bohr**3)
--------------------------------------------------------------------------------
 
_setup2: Arith. and geom. avg. npw (full set) are    6921.056    6921.040
 
================================================================================

--- !BeginCycle
iteration_state: {dtset: 1, }
solver: {iscf: 7, nstep: 10, nline: 4, wfoptalg: 0, }
tolerances: {toldfe: 1.00E-06, }
...
 
     iter   Etot(hartree)      deltaE(h)  residm     vres2
 ETOT  1  -91.480349559361    -9.148E+01 8.062E-02 9.289E+03
 ETOT  2  -86.258678015669     5.222E+00 3.975E-02 9.043E+04
 ETOT  3  -92.226478283357    -5.968E+00 6.148E-02 1.790E+03
 ETOT  4  -92.296279099902    -6.980E-02 6.149E-03 9.020E+02
 ETOT  5  -92.314835319943    -1.856E-02 3.698E-03 4.689E+02
 ETOT  6  -92.319309559511    -4.474E-03 2.888E-03 3.349E+02
 ETOT  7  -92.323004224500    -3.695E-03 2.026E-03 2.206E+02
 ETOT  8  -92.325343082155    -2.339E-03 1.246E-03 1.374E+02
 ETOT  9  -92.326466082249    -1.123E-03 8.595E-04 9.254E+01
 ETOT 10  -92.327268561664    -8.025E-04 4.617E-04 5.547E+01
 
 Cartesian components of stress tensor (hartree/bohr^3)
  sigma(1 1)=  1.44588344E-04  sigma(3 2)=  4.91456760E-08
  sigma(2 2)=  1.46039963E-04  sigma(3 1)=  5.92466625E-08
  sigma(3 3)=  4.23516937E-04  sigma(2 1)= -4.02028263E-07
 
 
 scprqt:  WARNING -
  nstep=   10 was not enough SCF cycles to converge;
  maximum energy difference=  8.025E-04 exceeds toldfe=  1.000E-06
 

--- !ResultsGS
iteration_state: {dtset: 1, }
comment   : Summary of ground state results
lattice_vectors:
- [  2.9763187,  -5.1551351,   0.0000000, ]
- [  2.9763187,   5.1551351,   0.0000000, ]
- [  0.0000000,   0.0000000,  37.7945227, ]
lattice_lengths: [   5.95264,    5.95264,   37.79452, ]
lattice_angles: [ 90.000,  90.000, 120.000, ] # degrees, (23, 13, 12)
lattice_volume:   1.1597873E+03
convergence: {deltae: -8.025E-04, res2:  5.547E+01, residm:  4.617E-04, diffor: null, }
etotal    :  -9.23272686E+01
entropy   :   0.00000000E+00
fermie    :  -6.96249853E-02
cartesian_stress_tensor: # hartree/bohr^3
- [  1.44588344E-04,  -4.02028263E-07,   5.92466625E-08, ]
- [ -4.02028263E-07,   1.46039963E-04,   4.91456760E-08, ]
- [  5.92466625E-08,   4.91456760E-08,   4.23516937E-04, ]
pressure_GPa:  -7.0036E+00
xred      :
- [  3.3333E-01,   6.6667E-01,   0.0000E+00, Mo]
- [  6.6667E-01,   3.3333E-01,  -9.1944E-02,  S]
- [  6.6667E-01,   3.3333E-01,   9.1944E-02,  S]
cartesian_forces: # hartree/bohr
- [ -2.16481565E-05,  -8.44014843E-05,   1.49184765E-04, ]
- [  2.47637782E-05,   4.11526163E-05,   7.13828407E-02, ]
- [ -3.11562174E-06,   4.32488680E-05,  -7.15320255E-02, ]
force_length_stats: {min:   1.72766743E-04, max:   7.15320387E-02, mean:   4.76958874E-02, }
...

 Integrated electronic density in atomic spheres:
 ------------------------------------------------
 Atom  Sphere_radius  Integrated_density
    1        2.00000         10.42085540
    2        2.00000          3.81736720
    3        2.00000          3.81685325
================================================================================
 
 ----iterations are completed or convergence reached----
 
 Mean square residual over all n,k,spin=   34.342E-07; max=  46.167E-05
 reduced coordinates (array xred) for    3 atoms
       0.333333333333      0.666666666667      0.000000000000
       0.666666666667      0.333333333333     -0.091944235000
       0.666666666667      0.333333333333      0.091944235000
 rms dE/dt=  1.2731E+00; max dE/dt=  2.7035E+00; dE/dt below (all hartree)
    1      -0.000361519043      0.000587446435     -0.005632835705
    2       0.000147592605     -0.000197938628     -2.697874860668
    3       0.000241377045     -0.000125767110      2.703524290197
 
 cartesian coordinates (angstrom) at end:
    1      1.57500000000000     0.90932667396900     0.00000000000000
    2      1.57500000000000    -0.90932667396900    -1.83888470000000
    3      1.57500000000000    -0.90932667396900     1.83888470000000
 
 cartesian forces (hartree/bohr) at end:
    1     -0.00002164815649    -0.00008440148426     0.00014918476496
    2      0.00002476377822     0.00004115261628     0.07138284074590
    3     -0.00000311562174     0.00004324886798    -0.07153202551086
 frms,max,avg= 3.3685432E-02 7.1532026E-02  -1.631E-05 -7.639E-06 -1.464E-07 h/b
 
 cartesian forces (eV/Angstrom) at end:
    1     -0.00111319287077    -0.00434009845693     0.00767138841090
    2      0.00127340456875     0.00211615243492     3.67065294767636
    3     -0.00016021169798     0.00222394602201    -3.67832433608725
 frms,max,avg= 1.7321744E+00 3.6783243E+00  -8.385E-04 -3.928E-04 -7.526E-06 e/A
 length scales=  5.952637318590  5.952637318590 37.794522657713 bohr
              =  3.150000000000  3.150000000000 20.000000000000 angstroms
 prteigrs : about to open file mos2o_DS1_EIG
 Fermi (or HOMO) energy (hartree) =  -0.06962   Average Vxc (hartree)=  -0.15096
 Eigenvalues (hartree) for nkpt=  20  k points:
 kpt#   1, nband= 14, wtk=  0.02778, kpt=  0.0000  0.0000  0.5000 (reduced coord)
  -2.31586   -1.36222   -1.35219   -1.35211   -0.56699   -0.54307   -0.25929   -0.15732
  -0.12154   -0.12152   -0.10472   -0.08584   -0.08580    0.01808
 prteigrs : prtvol=0 or 1, do not print more k-points.
 

--- !EnergyTerms
iteration_state     : {dtset: 1, }
comment             : Components of total free energy in Hartree
kinetic             :  2.95874588649540E+01
hartree             :  2.66511277811356E+02
xc                  : -1.64505512197772E+01
Ewald energy        :  1.89573206011761E+02
psp_core            :  7.63117176066322E-01
local_psp           : -5.73885195458957E+02
non_local_psp       :  1.15734182529329E+01
total_energy        : -9.23272685616645E+01
total_energy_eV     : -2.51235274557676E+03
band_energy         : -1.70923456914598E+01
...

 
 Cartesian components of stress tensor (hartree/bohr^3)
  sigma(1 1)=  1.44588344E-04  sigma(3 2)=  4.91456760E-08
  sigma(2 2)=  1.46039963E-04  sigma(3 1)=  5.92466625E-08
  sigma(3 3)=  4.23516937E-04  sigma(2 1)= -4.02028263E-07
 
-Cartesian components of stress tensor (GPa)         [Pressure= -7.0036E+00 GPa]
- sigma(1 1)=  4.25393524E+00  sigma(3 2)=  1.44591547E-03
- sigma(2 2)=  4.29664334E+00  sigma(3 1)=  1.74309670E-03
- sigma(3 3)=  1.24602964E+01  sigma(2 1)= -1.18280779E-02
 
================================================================================
== DATASET  2 ==================================================================
-   mpi_nproc: 1, omp_nthreads: -1 (-1 if OMP is not activated)
 

--- !DatasetInfo
iteration_state: {dtset: 2, }
dimensions: {natom: 3, nkpt: 68, mband: 8, nsppol: 1, nspinor: 1, nspden: 1, mpw: 6965, }
cutoff_energies: {ecut:  25.0, pawecutdg:  -1.0, }
electrons: {nelect:   2.60000000E+01, charge:   0.00000000E+00, occopt:   1.00000000E+00, tsmear:   1.00000000E-02, }
meta: {optdriver: 0, ionmov: 0, optcell: 0, iscf: -2, paral_kgb: 0, }
...

 mkfilename : getden/=0, take file _DEN from output of DATASET   1.
 
 Exchange-correlation functional for the present dataset will be:
  GGA: Perdew-Burke-Ernzerhof functional - ixc=11
 Citation for XC functional:
  J.P.Perdew, K.Burke, M.Ernzerhof, PRL 77, 3865 (1996)
 
 Real(R)+Recip(G) space primitive vectors, cartesian coordinates (Bohr,Bohr^-1):
 R(1)=  2.9763187 -5.1551351  0.0000000  G(1)=  0.1679928 -0.0969907  0.0000000
 R(2)=  2.9763187  5.1551351  0.0000000  G(2)=  0.1679928  0.0969907  0.0000000
 R(3)=  0.0000000  0.0000000 37.7945227  G(3)=  0.0000000  0.0000000  0.0264589
 Unit cell volume ucvol=  1.1597873E+03 bohr^3
 Angles (23,13,12)=  9.00000000E+01  9.00000000E+01  1.20000000E+02 degrees
 
 getcut: wavevector=  0.0000  0.0000  0.0000  ngfft=  30  30 180
         ecut(hartree)=     25.000   => boxcut(ratio)=   2.11597
--------------------------------------------------------------------------------
 
 
================================================================================
 prteigrs : about to open file mos2o_DS2_EIG
 Non-SCF case, kpt    1 (  0.00000  0.00000  0.00000), residuals and eigenvalues=
  6.99E-13  5.27E-13  3.08E-13  3.46E-13  2.35E-11  1.21E-11  4.57E-10  9.27E-09
 -2.2733E+00 -1.3213E+00 -1.3100E+00 -1.3100E+00 -5.4380E-01 -5.2124E-01
 -2.3235E-01 -1.3738E-01
  prteigrs : nnsclo,ikpt=   10    1 max resid (excl. the buffer)=  2.35390E-11
 Non-SCF case, kpt    2 (  0.02941  0.00000  0.00000), residuals and eigenvalues=
  3.71E-13  9.22E-13  2.87E-13  5.78E-13  2.31E-11  8.90E-12  7.90E-11  2.29E-07
 -2.2733E+00 -1.3213E+00 -1.3101E+00 -1.3100E+00 -5.4334E-01 -5.2092E-01
 -2.3173E-01 -1.3768E-01
  prteigrs : nnsclo,ikpt=   10    2 max resid (excl. the buffer)=  2.31248E-11
 Non-SCF case, kpt    3 (  0.05882  0.00000  0.00000), residuals and eigenvalues=
  9.24E-13  5.17E-13  4.01E-13  3.63E-13  1.87E-11  5.35E-12  3.52E-10  9.19E-07
 -2.2733E+00 -1.3213E+00 -1.3105E+00 -1.3101E+00 -5.4199E-01 -5.2000E-01
 -2.2988E-01 -1.3859E-01
  prteigrs : nnsclo,ikpt=   10    3 max resid (excl. the buffer)=  1.87049E-11
 Non-SCF case, kpt    4 (  0.08824  0.00000  0.00000), residuals and eigenvalues=
  5.61E-13  3.46E-13  3.61E-13  4.78E-13  2.10E-11  4.92E-12  1.49E-11  3.87E-07
 -2.2732E+00 -1.3212E+00 -1.3110E+00 -1.3103E+00 -5.3975E-01 -5.1847E-01
 -2.2688E-01 -1.4009E-01
  prteigrs : nnsclo,ikpt=   10    4 max resid (excl. the buffer)=  2.10283E-11
 Non-SCF case, kpt    5 (  0.11765  0.00000  0.00000), residuals and eigenvalues=
  8.77E-13  2.46E-13  4.32E-13  4.21E-13  3.87E-11  9.14E-12  5.64E-10  1.84E-06
 -2.2731E+00 -1.3210E+00 -1.3117E+00 -1.3104E+00 -5.3666E-01 -5.1637E-01
 -2.2282E-01 -1.4219E-01
  prteigrs : nnsclo,ikpt=   10    5 max resid (excl. the buffer)=  3.87334E-11
 Non-SCF case, kpt    6 (  0.14706  0.00000  0.00000), residuals and eigenvalues=
  3.59E-13  9.51E-13  8.32E-13  4.86E-13  1.34E-11  2.35E-12  4.35E-10  1.96E-06
 -2.2730E+00 -1.3209E+00 -1.3127E+00 -1.3106E+00 -5.3278E-01 -5.1372E-01
 -2.1788E-01 -1.4494E-01
  prteigrs : nnsclo,ikpt=   10    6 max resid (excl. the buffer)=  1.34073E-11
 Non-SCF case, kpt    7 (  0.17647  0.00000  0.00000), residuals and eigenvalues=
  3.68E-13  4.49E-13  6.59E-13  3.93E-13  6.75E-12  3.15E-12  5.46E-09  3.92E-05
 -2.2729E+00 -1.3207E+00 -1.3137E+00 -1.3109E+00 -5.2816E-01 -5.1057E-01
 -2.1230E-01 -1.4833E-01
  prteigrs : nnsclo,ikpt=   10    7 max resid (excl. the buffer)=  6.75118E-12
 Non-SCF case, kpt    8 (  0.20588  0.00000  0.00000), residuals and eigenvalues=
  3.11E-13  9.87E-13  3.35E-13  4.07E-13  5.35E-12  6.08E-12  1.10E-08  1.87E-04
 -2.2728E+00 -1.3205E+00 -1.3148E+00 -1.3111E+00 -5.2289E-01 -5.0699E-01
 -2.0642E-01 -1.5177E-01
  prteigrs : nnsclo,ikpt=   10    8 max resid (excl. the buffer)=  6.08074E-12
 Non-SCF case, kpt    9 (  0.23529  0.00000  0.00000), residuals and eigenvalues=
  3.52E-13  4.38E-13  6.80E-13  6.42E-13  2.13E-11  4.23E-12  7.44E-09  8.51E-05
 -2.2726E+00 -1.3203E+00 -1.3159E+00 -1.3114E+00 -5.1707E-01 -5.0305E-01
 -2.0076E-01 -1.5701E-01
  prteigrs : nnsclo,ikpt=   10    9 max resid (excl. the buffer)=  2.12763E-11
 Non-SCF case, kpt   10 (  0.26471  0.00000  0.00000), residuals and eigenvalues=
  4.20E-13  8.90E-13  4.40E-13  6.26E-13  2.61E-12  4.27E-12  4.32E-07  1.28E-05
 -2.2725E+00 -1.3200E+00 -1.3172E+00 -1.3117E+00 -5.1085E-01 -4.9885E-01
 -1.9630E-01 -1.6494E-01
  prteigrs : nnsclo,ikpt=   10   10 max resid (excl. the buffer)=  4.26737E-12
 Non-SCF case, kpt   11 (  0.29412  0.00000  0.00000), residuals and eigenvalues=
  5.18E-13  4.81E-13  8.43E-13  3.09E-13  7.39E-12  4.33E-12  3.43E-05  1.62E-05
 -2.2723E+00 -1.3198E+00 -1.3183E+00 -1.3119E+00 -5.0436E-01 -4.9452E-01
 -1.9511E-01 -1.7239E-01
  prteigrs : nnsclo,ikpt=   10   11 max resid (excl. the buffer)=  7.38878E-12
 Non-SCF case, kpt   12 (  0.32353  0.00000  0.00000), residuals and eigenvalues=
  3.12E-13  2.97E-13  4.55E-13  7.97E-13  4.62E-12  2.06E-12  2.83E-06  1.19E-06
 -2.2722E+00 -1.3196E+00 -1.3195E+00 -1.3122E+00 -4.9783E-01 -4.9018E-01
 -2.0023E-01 -1.8258E-01
  prteigrs : nnsclo,ikpt=   10   12 max resid (excl. the buffer)=  4.61947E-12
 Non-SCF case, kpt   13 (  0.35294  0.00000  0.00000), residuals and eigenvalues=
  4.36E-13  3.86E-13  4.71E-13  3.90E-13  6.89E-12  1.24E-12  1.06E-06  6.22E-06
 -2.2721E+00 -1.3205E+00 -1.3195E+00 -1.3124E+00 -4.9148E-01 -4.8601E-01
 -2.0905E-01 -1.9143E-01
  prteigrs : nnsclo,ikpt=   10   13 max resid (excl. the buffer)=  6.88816E-12
 Non-SCF case, kpt   14 (  0.38235  0.00000  0.00000), residuals and eigenvalues=
  3.53E-13  9.20E-13  8.10E-13  2.87E-13  1.54E-12  2.57E-12  1.26E-07  1.77E-07
 -2.2720E+00 -1.3214E+00 -1.3193E+00 -1.3126E+00 -4.8560E-01 -4.8219E-01
 -2.1825E-01 -1.9962E-01
  prteigrs : nnsclo,ikpt=   10   14 max resid (excl. the buffer)=  2.57168E-12
 Non-SCF case, kpt   15 (  0.41176  0.00000  0.00000), residuals and eigenvalues=
  3.92E-13  5.41E-13  6.99E-13  7.82E-13  1.39E-12  9.87E-13  2.37E-08  3.37E-06
 -2.2719E+00 -1.3221E+00 -1.3191E+00 -1.3128E+00 -4.8053E-01 -4.7893E-01
 -2.2637E-01 -2.0657E-01
  prteigrs : nnsclo,ikpt=   10   15 max resid (excl. the buffer)=  1.39170E-12
 Non-SCF case, kpt   16 (  0.44118  0.00000  0.00000), residuals and eigenvalues=
  5.68E-13  3.04E-13  9.50E-13  8.61E-13  2.48E-12  1.11E-12  2.23E-08  8.69E-07
 -2.2719E+00 -1.3227E+00 -1.3191E+00 -1.3129E+00 -4.7667E-01 -4.7633E-01
 -2.3266E-01 -2.1186E-01
  prteigrs : nnsclo,ikpt=   10   16 max resid (excl. the buffer)=  2.48365E-12
 Non-SCF case, kpt   17 (  0.47059  0.00000  0.00000), residuals and eigenvalues=
  4.28E-13  3.20E-13  8.29E-13  9.25E-13  2.57E-12  2.34E-12  3.72E-08  2.43E-08
 -2.2718E+00 -1.3230E+00 -1.3190E+00 -1.3130E+00 -4.7490E-01 -4.7400E-01
 -2.3664E-01 -2.1517E-01
  prteigrs : nnsclo,ikpt=   10   17 max resid (excl. the buffer)=  2.57362E-12
 Non-SCF case, kpt   18 (  0.50000  0.00000  0.00000), residuals and eigenvalues=
  9.34E-13  4.54E-13  7.33E-13  5.82E-13  1.27E-12  6.76E-13  3.49E-08  7.24E-07
 -2.2718E+00 -1.3232E+00 -1.3190E+00 -1.3131E+00 -4.7436E-01 -4.7314E-01
 -2.3800E-01 -2.1629E-01
  prteigrs : nnsclo,ikpt=   10   18 max resid (excl. the buffer)=  1.27327E-12
 Non-SCF case, kpt   19 (  0.48333  0.03333  0.00000), residuals and eigenvalues=
  8.84E-13  3.62E-13  6.03E-13  3.08E-13  1.04E-12  5.15E-13  1.48E-08  5.75E-08
 -2.2718E+00 -1.3231E+00 -1.3190E+00 -1.3132E+00 -4.7419E-01 -4.7293E-01
 -2.3745E-01 -2.1607E-01
  prteigrs : nnsclo,ikpt=   10   19 max resid (excl. the buffer)=  1.04273E-12
 Non-SCF case, kpt   20 (  0.46667  0.06667  0.00000), residuals and eigenvalues=
  4.94E-13  9.06E-13  2.92E-13  5.02E-13  1.84E-12  3.20E-13  3.19E-08  3.12E-07
 -2.2718E+00 -1.3230E+00 -1.3189E+00 -1.3134E+00 -4.7370E-01 -4.7232E-01
 -2.3581E-01 -2.1545E-01
  prteigrs : nnsclo,ikpt=   10   20 max resid (excl. the buffer)=  1.84293E-12
 Non-SCF case, kpt   21 (  0.45000  0.10000  0.00000), residuals and eigenvalues=
  5.00E-13  3.15E-13  5.11E-13  2.81E-13  1.14E-12  1.37E-12  6.06E-08  5.90E-08
 -2.2718E+00 -1.3227E+00 -1.3189E+00 -1.3138E+00 -4.7293E-01 -4.7133E-01
 -2.3311E-01 -2.1447E-01
  prteigrs : nnsclo,ikpt=   10   21 max resid (excl. the buffer)=  1.36573E-12
 Non-SCF case, kpt   22 (  0.43333  0.13333  0.00000), residuals and eigenvalues=
  3.45E-13  3.31E-13  5.72E-13  4.09E-13  3.01E-12  4.51E-12  2.66E-08  1.20E-07
 -2.2717E+00 -1.3224E+00 -1.3189E+00 -1.3145E+00 -4.7191E-01 -4.7004E-01
 -2.2941E-01 -2.1326E-01
  prteigrs : nnsclo,ikpt=   10   22 max resid (excl. the buffer)=  4.50554E-12
 Non-SCF case, kpt   23 (  0.41667  0.16667  0.00000), residuals and eigenvalues=
  3.80E-13  7.72E-13  6.70E-13  4.56E-13  2.36E-12  9.11E-13  6.47E-08  1.36E-07
 -2.2717E+00 -1.3220E+00 -1.3188E+00 -1.3152E+00 -4.7074E-01 -4.6853E-01
 -2.2479E-01 -2.1197E-01
  prteigrs : nnsclo,ikpt=   10   23 max resid (excl. the buffer)=  2.36221E-12
 Non-SCF case, kpt   24 (  0.40000  0.20000  0.00000), residuals and eigenvalues=
  6.07E-13  2.26E-13  5.93E-13  2.64E-13  1.11E-12  1.85E-12  6.70E-08  6.88E-08
 -2.2717E+00 -1.3216E+00 -1.3187E+00 -1.3159E+00 -4.6950E-01 -4.6691E-01
 -2.1936E-01 -2.1081E-01
  prteigrs : nnsclo,ikpt=   10   24 max resid (excl. the buffer)=  1.85382E-12
 Non-SCF case, kpt   25 (  0.38333  0.23333  0.00000), residuals and eigenvalues=
  8.66E-13  5.35E-13  6.99E-13  6.80E-13  1.42E-12  1.26E-12  3.13E-07  1.68E-05
 -2.2717E+00 -1.3211E+00 -1.3187E+00 -1.3168E+00 -4.6830E-01 -4.6534E-01
 -2.1328E-01 -2.0999E-01
  prteigrs : nnsclo,ikpt=   10   25 max resid (excl. the buffer)=  1.42490E-12
 Non-SCF case, kpt   26 (  0.36667  0.26667  0.00000), residuals and eigenvalues=
  5.40E-13  8.11E-13  8.82E-13  5.09E-13  6.81E-13  6.10E-13  1.59E-07  8.53E-08
 -2.2717E+00 -1.3205E+00 -1.3187E+00 -1.3176E+00 -4.6728E-01 -4.6397E-01
 -2.0970E-01 -2.0688E-01
 Non-SCF case, kpt   27 (  0.35000  0.30000  0.00000), residuals and eigenvalues=
  6.74E-13  7.01E-13  6.62E-13  5.92E-13  4.97E-13  8.47E-13  1.33E-08  1.21E-07
 -2.2716E+00 -1.3199E+00 -1.3187E+00 -1.3183E+00 -4.6656E-01 -4.6301E-01
 -2.0978E-01 -2.0103E-01
 Non-SCF case, kpt   28 (  0.33333  0.33333  0.00000), residuals and eigenvalues=
  4.99E-13  8.08E-13  6.65E-13  3.95E-13  1.23E-12  1.32E-12  1.17E-07  3.66E-07
 -2.2716E+00 -1.3195E+00 -1.3188E+00 -1.3187E+00 -4.6630E-01 -4.6265E-01
 -2.0991E-01 -1.9826E-01
  prteigrs : nnsclo,ikpt=   10   28 max resid (excl. the buffer)=  1.31911E-12
 Non-SCF case, kpt   29 (  0.35000  0.35000  0.02500), residuals and eigenvalues=
  5.60E-13  6.77E-13  5.01E-13  3.83E-13  3.34E-13  8.93E-13  2.45E-07  7.47E-07
 -2.2716E+00 -1.3199E+00 -1.3187E+00 -1.3184E+00 -4.6656E-01 -4.6301E-01
 -2.0978E-01 -2.0102E-01
 Non-SCF case, kpt   30 (  0.36667  0.36667  0.05000), residuals and eigenvalues=
  4.03E-13  7.47E-13  2.71E-13  4.20E-13  1.92E-13  7.03E-13  2.83E-08  4.66E-08
 -2.2717E+00 -1.3205E+00 -1.3187E+00 -1.3176E+00 -4.6727E-01 -4.6397E-01
 -2.0970E-01 -2.0687E-01
 Non-SCF case, kpt   31 (  0.38333  0.38333  0.07500), residuals and eigenvalues=
  9.26E-13  1.76E-13  2.87E-13  5.80E-13  1.80E-12  8.12E-13  9.09E-09  7.27E-09
 -2.2717E+00 -1.3210E+00 -1.3187E+00 -1.3168E+00 -4.6830E-01 -4.6534E-01
 -2.1328E-01 -2.1001E-01
  prteigrs : nnsclo,ikpt=   10   31 max resid (excl. the buffer)=  1.79755E-12
 Non-SCF case, kpt   32 (  0.40000  0.40000  0.10000), residuals and eigenvalues=
  8.27E-13  7.80E-13  2.95E-13  2.81E-13  8.37E-13  5.66E-13  2.08E-08  6.04E-08
 -2.2717E+00 -1.3216E+00 -1.3188E+00 -1.3160E+00 -4.6949E-01 -4.6691E-01
 -2.1936E-01 -2.1081E-01
 Non-SCF case, kpt   33 (  0.41667  0.41667  0.12500), residuals and eigenvalues=
  5.28E-13  6.87E-13  8.35E-13  6.63E-13  1.13E-12  9.87E-13  3.42E-09  4.07E-08
 -2.2717E+00 -1.3220E+00 -1.3188E+00 -1.3152E+00 -4.7074E-01 -4.6853E-01
 -2.2479E-01 -2.1197E-01
  prteigrs : nnsclo,ikpt=   10   33 max resid (excl. the buffer)=  1.12952E-12
 Non-SCF case, kpt   34 (  0.43333  0.43333  0.15000), residuals and eigenvalues=
  3.05E-13  3.22E-13  4.82E-13  5.15E-13  1.79E-12  7.37E-13  8.57E-09  5.02E-08
 -2.2718E+00 -1.3224E+00 -1.3189E+00 -1.3145E+00 -4.7191E-01 -4.7004E-01
 -2.2941E-01 -2.1326E-01
  prteigrs : nnsclo,ikpt=   10   34 max resid (excl. the buffer)=  1.79378E-12
 Non-SCF case, kpt   35 (  0.45000  0.45000  0.17500), residuals and eigenvalues=
  6.00E-13  5.22E-13  4.65E-13  6.25E-13  8.04E-13  2.58E-12  8.56E-09  1.18E-07
 -2.2718E+00 -1.3227E+00 -1.3189E+00 -1.3139E+00 -4.7292E-01 -4.7133E-01
 -2.3311E-01 -2.1447E-01
  prteigrs : nnsclo,ikpt=   10   35 max resid (excl. the buffer)=  2.57818E-12
 Non-SCF case, kpt   36 (  0.46667  0.46667  0.20000), residuals and eigenvalues=
  4.19E-13  6.75E-13  3.77E-13  5.58E-13  1.59E-12  1.37E-12  3.41E-09  1.84E-07
 -2.2718E+00 -1.3230E+00 -1.3190E+00 -1.3134E+00 -4.7370E-01 -4.7232E-01
 -2.3581E-01 -2.1545E-01
  prteigrs : nnsclo,ikpt=   10   36 max resid (excl. the buffer)=  1.58878E-12
 Non-SCF case, kpt   37 (  0.48333  0.48333  0.22500), residuals and eigenvalues=
  4.42E-13  8.95E-13  6.35E-13  6.97E-13  1.94E-12  5.85E-13  8.68E-09  1.03E-07
 -2.2718E+00 -1.3231E+00 -1.3189E+00 -1.3132E+00 -4.7419E-01 -4.7293E-01
 -2.3745E-01 -2.1607E-01
  prteigrs : nnsclo,ikpt=   10   37 max resid (excl. the buffer)=  1.93744E-12
 Non-SCF case, kpt   38 (  0.50000  0.50000  0.25000), residuals and eigenvalues=
  4.46E-13  4.94E-13  3.92E-13  7.05E-13  1.61E-12  1.83E-12  5.46E-08  1.84E-06
 -2.2718E+00 -1.3231E+00 -1.3190E+00 -1.3131E+00 -4.7435E-01 -4.7314E-01
 -2.3800E-01 -2.1629E-01
  prteigrs : nnsclo,ikpt=   10   38 max resid (excl. the buffer)=  1.82871E-12
 Non-SCF case, kpt   39 (  0.51667  0.51667  0.27500), residuals and eigenvalues=
  2.97E-13  2.36E-13  5.18E-13  7.51E-13  1.79E-12  1.97E-12  1.31E-08  6.69E-08
 -2.2718E+00 -1.3231E+00 -1.3190E+00 -1.3132E+00 -4.7419E-01 -4.7293E-01
 -2.3745E-01 -2.1607E-01
  prteigrs : nnsclo,ikpt=   10   39 max resid (excl. the buffer)=  1.97093E-12
 Non-SCF case, kpt   40 (  0.53333  0.53333  0.30000), residuals and eigenvalues=
  3.20E-13  9.47E-13  8.53E-13  3.80E-13  1.42E-12  1.03E-12  3.10E-08  6.55E-07
 -2.2718E+00 -1.3230E+00 -1.3189E+00 -1.3134E+00 -4.7370E-01 -4.7232E-01
 -2.3581E-01 -2.1545E-01
  prteigrs : nnsclo,ikpt=   10   40 max resid (excl. the buffer)=  1.41961E-12
 Non-SCF case, kpt   41 (  0.55000  0.55000  0.32500), residuals and eigenvalues=
  3.95E-13  2.99E-13  3.87E-13  4.45E-13  1.43E-12  9.00E-13  9.05E-09  3.80E-07
 -2.2718E+00 -1.3227E+00 -1.3189E+00 -1.3139E+00 -4.7292E-01 -4.7133E-01
 -2.3311E-01 -2.1447E-01
  prteigrs : nnsclo,ikpt=   10   41 max resid (excl. the buffer)=  1.43117E-12
 Non-SCF case, kpt   42 (  0.56667  0.56667  0.35000), residuals and eigenvalues=
  3.97E-13  5.33E-13  9.04E-13  4.30E-13  9.83E-13  1.26E-12  4.18E-08  1.73E-07
 -2.2717E+00 -1.3224E+00 -1.3188E+00 -1.3144E+00 -4.7191E-01 -4.7004E-01
 -2.2941E-01 -2.1326E-01
  prteigrs : nnsclo,ikpt=   10   42 max resid (excl. the buffer)=  1.25763E-12
 Non-SCF case, kpt   43 (  0.58333  0.58333  0.37500), residuals and eigenvalues=
  3.94E-13  6.55E-13  7.12E-13  5.18E-13  2.56E-12  1.90E-12  3.58E-09  1.17E-07
 -2.2717E+00 -1.3220E+00 -1.3188E+00 -1.3152E+00 -4.7074E-01 -4.6853E-01
 -2.2479E-01 -2.1197E-01
  prteigrs : nnsclo,ikpt=   10   43 max resid (excl. the buffer)=  2.56174E-12
 Non-SCF case, kpt   44 (  0.60000  0.60000  0.40000), residuals and eigenvalues=
  4.40E-13  9.85E-13  3.36E-13  3.55E-13  1.96E-12  6.74E-13  2.63E-08  3.60E-08
 -2.2717E+00 -1.3215E+00 -1.3188E+00 -1.3160E+00 -4.6949E-01 -4.6691E-01
 -2.1936E-01 -2.1081E-01
  prteigrs : nnsclo,ikpt=   10   44 max resid (excl. the buffer)=  1.95690E-12
 Non-SCF case, kpt   45 (  0.61667  0.61667  0.42500), residuals and eigenvalues=
  4.78E-13  9.24E-13  5.88E-13  2.88E-13  6.08E-13  4.34E-13  3.23E-08  6.47E-08
 -2.2717E+00 -1.3210E+00 -1.3187E+00 -1.3168E+00 -4.6830E-01 -4.6534E-01
 -2.1328E-01 -2.1001E-01
 Non-SCF case, kpt   46 (  0.63333  0.63333  0.45000), residuals and eigenvalues=
  4.31E-13  8.06E-13  5.32E-13  8.66E-13  1.79E-12  1.22E-12  3.85E-08  3.19E-08
 -2.2717E+00 -1.3205E+00 -1.3187E+00 -1.3176E+00 -4.6727E-01 -4.6397E-01
 -2.0970E-01 -2.0687E-01
  prteigrs : nnsclo,ikpt=   10   46 max resid (excl. the buffer)=  1.78626E-12
 Non-SCF case, kpt   47 (  0.65000  0.65000  0.47500), residuals and eigenvalues=
  4.04E-13  8.60E-13  3.57E-13  5.21E-13  6.07E-13  7.93E-13  7.73E-08  7.68E-07
 -2.2716E+00 -1.3199E+00 -1.3187E+00 -1.3184E+00 -4.6656E-01 -4.6301E-01
 -2.0978E-01 -2.0102E-01
 Non-SCF case, kpt   48 (  0.66667  0.66667  0.50000), residuals and eigenvalues=
  3.85E-13  8.19E-13  2.48E-13  6.60E-13  2.32E-12  1.52E-12  2.51E-07  4.24E-07
 -2.2716E+00 -1.3195E+00 -1.3188E+00 -1.3187E+00 -4.6630E-01 -4.6264E-01
 -2.0991E-01 -1.9826E-01
  prteigrs : nnsclo,ikpt=   10   48 max resid (excl. the buffer)=  2.32068E-12
 Non-SCF case, kpt   49 (  0.68333  0.68333  0.52500), residuals and eigenvalues=
  5.49E-13  3.83E-13  3.94E-13  2.54E-13  5.85E-13  6.51E-13  2.31E-07  3.72E-07
 -2.2716E+00 -1.3199E+00 -1.3187E+00 -1.3184E+00 -4.6660E-01 -4.6307E-01
 -2.0961E-01 -2.0060E-01
 Non-SCF case, kpt   50 (  0.70000  0.70000  0.55000), residuals and eigenvalues=
  3.37E-13  4.30E-13  2.52E-13  7.25E-13  9.11E-13  6.30E-13  8.81E-08  2.34E-07
 -2.2716E+00 -1.3203E+00 -1.3187E+00 -1.3177E+00 -4.6755E-01 -4.6443E-01
 -2.0840E-01 -2.0447E-01
 Non-SCF case, kpt   51 (  0.71667  0.71667  0.57500), residuals and eigenvalues=
  3.42E-13  2.95E-13  5.55E-13  8.94E-13  1.56E-12  7.84E-13  1.16E-08  6.37E-08
 -2.2717E+00 -1.3206E+00 -1.3188E+00 -1.3170E+00 -4.6921E-01 -4.6683E-01
 -2.0721E-01 -2.0594E-01
  prteigrs : nnsclo,ikpt=   10   51 max resid (excl. the buffer)=  1.56064E-12
 Non-SCF case, kpt   52 (  0.73333  0.73333  0.60000), residuals and eigenvalues=
  4.08E-13  8.15E-13  3.39E-13  4.76E-13  9.11E-13  1.45E-12  8.78E-08  5.73E-08
 -2.2717E+00 -1.3208E+00 -1.3188E+00 -1.3163E+00 -4.7156E-01 -4.7028E-01
 -2.0800E-01 -2.0202E-01
  prteigrs : nnsclo,ikpt=   10   52 max resid (excl. the buffer)=  1.45246E-12
 Non-SCF case, kpt   53 (  0.75000  0.75000  0.62500), residuals and eigenvalues=
  6.31E-13  5.96E-13  2.05E-13  5.16E-13  9.39E-13  4.86E-13  4.95E-07  7.80E-06
 -2.2718E+00 -1.3207E+00 -1.3190E+00 -1.3156E+00 -4.7482E-01 -4.7443E-01
 -2.0671E-01 -1.9658E-01
 Non-SCF case, kpt   54 (  0.76667  0.76667  0.65000), residuals and eigenvalues=
  2.92E-13  8.21E-13  5.45E-13  7.91E-13  2.28E-12  1.86E-12  1.51E-07  8.96E-06
 -2.2719E+00 -1.3204E+00 -1.3191E+00 -1.3149E+00 -4.8001E-01 -4.7804E-01
 -2.0344E-01 -1.8970E-01
  prteigrs : nnsclo,ikpt=   10   54 max resid (excl. the buffer)=  2.28383E-12
 Non-SCF case, kpt   55 (  0.78333  0.78333  0.67500), residuals and eigenvalues=
  4.15E-13  8.95E-13  3.95E-13  4.65E-13  1.99E-12  4.67E-12  1.53E-07  5.85E-05
 -2.2720E+00 -1.3200E+00 -1.3193E+00 -1.3143E+00 -4.8591E-01 -4.8201E-01
 -1.9854E-01 -1.8147E-01
  prteigrs : nnsclo,ikpt=   10   55 max resid (excl. the buffer)=  4.66948E-12
 Non-SCF case, kpt   56 (  0.80000  0.80000  0.70000), residuals and eigenvalues=
  4.33E-13  5.35E-13  8.04E-13  4.22E-13  2.22E-12  4.23E-12  4.06E-07  3.34E-05
 -2.2721E+00 -1.3195E+00 -1.3193E+00 -1.3136E+00 -4.9225E-01 -4.8627E-01
 -1.9277E-01 -1.7153E-01
  prteigrs : nnsclo,ikpt=   10   56 max resid (excl. the buffer)=  4.23076E-12
 Non-SCF case, kpt   57 (  0.81667  0.81667  0.72500), residuals and eigenvalues=
  4.31E-13  3.78E-13  7.36E-13  9.24E-13  4.82E-12  3.49E-12  1.48E-05  9.91E-05
 -2.2722E+00 -1.3196E+00 -1.3185E+00 -1.3131E+00 -4.9881E-01 -4.9068E-01
 -1.8849E-01 -1.7066E-01
  prteigrs : nnsclo,ikpt=   10   57 max resid (excl. the buffer)=  4.82317E-12
 Non-SCF case, kpt   58 (  0.83333  0.83333  0.75000), residuals and eigenvalues=
  5.59E-13  8.89E-13  1.96E-13  5.87E-13  2.50E-12  3.44E-12  7.65E-06  6.20E-05
 -2.2724E+00 -1.3199E+00 -1.3176E+00 -1.3125E+00 -5.0539E-01 -4.9512E-01
 -1.8963E-01 -1.6609E-01
  prteigrs : nnsclo,ikpt=   10   58 max resid (excl. the buffer)=  3.43555E-12
 Non-SCF case, kpt   59 (  0.85000  0.85000  0.77500), residuals and eigenvalues=
  5.42E-13  4.70E-13  7.54E-13  7.33E-13  1.41E-11  5.24E-12  1.12E-07  4.63E-06
 -2.2725E+00 -1.3201E+00 -1.3166E+00 -1.3121E+00 -5.1181E-01 -4.9946E-01
 -1.9448E-01 -1.5735E-01
  prteigrs : nnsclo,ikpt=   10   59 max resid (excl. the buffer)=  1.41265E-11
 Non-SCF case, kpt   60 (  0.86667  0.86667  0.80000), residuals and eigenvalues=
  3.04E-13  2.77E-13  7.46E-13  3.67E-13  1.10E-11  9.60E-13  8.13E-09  3.14E-05
 -2.2726E+00 -1.3203E+00 -1.3155E+00 -1.3116E+00 -5.1792E-01 -5.0361E-01
 -2.0048E-01 -1.5251E-01
  prteigrs : nnsclo,ikpt=   10   60 max resid (excl. the buffer)=  1.09545E-11
 Non-SCF case, kpt   61 (  0.88333  0.88333  0.82500), residuals and eigenvalues=
  3.71E-13  7.75E-13  9.57E-13  3.11E-13  3.54E-12  8.32E-12  1.01E-09  3.18E-05
 -2.2728E+00 -1.3205E+00 -1.3145E+00 -1.3112E+00 -5.2359E-01 -5.0746E-01
 -2.0672E-01 -1.4990E-01
  prteigrs : nnsclo,ikpt=   10   61 max resid (excl. the buffer)=  8.32194E-12
 Non-SCF case, kpt   62 (  0.90000  0.90000  0.85000), residuals and eigenvalues=
  8.15E-13  8.99E-13  6.86E-13  3.80E-13  1.32E-11  3.32E-12  5.09E-10  5.62E-05
 -2.2729E+00 -1.3207E+00 -1.3135E+00 -1.3109E+00 -5.2870E-01 -5.1094E-01
 -2.1277E-01 -1.4690E-01
  prteigrs : nnsclo,ikpt=   10   62 max resid (excl. the buffer)=  1.32421E-11
 Non-SCF case, kpt   63 (  0.91667  0.91667  0.87500), residuals and eigenvalues=
  3.86E-13  5.53E-13  5.66E-13  7.31E-13  6.18E-12  1.21E-11  4.13E-10  1.82E-06
 -2.2730E+00 -1.3209E+00 -1.3125E+00 -1.3106E+00 -5.3317E-01 -5.1398E-01
 -2.1831E-01 -1.4433E-01
  prteigrs : nnsclo,ikpt=   10   63 max resid (excl. the buffer)=  1.21231E-11
 Non-SCF case, kpt   64 (  0.93333  0.93333  0.90000), residuals and eigenvalues=
  9.73E-13  6.51E-13  3.60E-13  9.63E-13  5.72E-11  1.04E-11  5.41E-10  6.64E-07
 -2.2731E+00 -1.3210E+00 -1.3117E+00 -1.3104E+00 -5.3692E-01 -5.1654E-01
 -2.2314E-01 -1.4193E-01
  prteigrs : nnsclo,ikpt=   10   64 max resid (excl. the buffer)=  5.72177E-11
 Non-SCF case, kpt   65 (  0.95000  0.95000  0.92500), residuals and eigenvalues=
  3.22E-13  5.09E-13  9.69E-13  8.55E-13  7.23E-11  7.29E-12  1.64E-10  1.21E-07
 -2.2732E+00 -1.3211E+00 -1.3110E+00 -1.3102E+00 -5.3989E-01 -5.1857E-01
 -2.2707E-01 -1.3998E-01
  prteigrs : nnsclo,ikpt=   10   65 max resid (excl. the buffer)=  7.23254E-11
 Non-SCF case, kpt   66 (  0.96667  0.96667  0.95000), residuals and eigenvalues=
  5.82E-13  4.34E-13  9.70E-13  9.79E-13  5.07E-11  4.47E-12  4.19E-11  2.88E-07
 -2.2733E+00 -1.3213E+00 -1.3105E+00 -1.3101E+00 -5.4205E-01 -5.2005E-01
 -2.2997E-01 -1.3854E-01
  prteigrs : nnsclo,ikpt=   10   66 max resid (excl. the buffer)=  5.07298E-11
 Non-SCF case, kpt   67 (  0.98333  0.98333  0.97500), residuals and eigenvalues=
  6.55E-13  6.62E-13  8.56E-13  4.55E-13  2.52E-11  3.76E-12  9.74E-11  1.62E-07
 -2.2733E+00 -1.3213E+00 -1.3102E+00 -1.3100E+00 -5.4336E-01 -5.2094E-01
 -2.3175E-01 -1.3767E-01
  prteigrs : nnsclo,ikpt=   10   67 max resid (excl. the buffer)=  2.51697E-11
 Non-SCF case, kpt   68 (  1.00000  1.00000  1.00000), residuals and eigenvalues=
  8.54E-13  8.82E-13  5.97E-13  8.83E-13  2.84E-11  2.64E-12  1.95E-11  2.23E-07
 -2.2733E+00 -1.3213E+00 -1.3100E+00 -1.3100E+00 -5.4380E-01 -5.2124E-01
 -2.3235E-01 -1.3738E-01
  prteigrs : nnsclo,ikpt=   10   68 max resid (excl. the buffer)=  2.83859E-11
 
 
 scprqt:  WARNING -
  nstep=   10 was not enough non-SCF iterations to converge;
  maximum residual=  7.233E-11 exceeds tolwfr=  1.000E-12
 

--- !ResultsGS
iteration_state: {dtset: 2, }
comment   : Summary of ground state results
lattice_vectors:
- [  2.9763187,  -5.1551351,   0.0000000, ]
- [  2.9763187,   5.1551351,   0.0000000, ]
- [  0.0000000,   0.0000000,  37.7945227, ]
lattice_lengths: [   5.95264,    5.95264,   37.79452, ]
lattice_angles: [ 90.000,  90.000, 120.000, ] # degrees, (23, 13, 12)
lattice_volume:   1.1597873E+03
convergence: {deltae:  0.000E+00, res2:  0.000E+00, residm:  7.233E-11, diffor:  0.000E+00, }
etotal    :  -9.23272686E+01
entropy   :   0.00000000E+00
fermie    :  -6.96249853E-02
cartesian_stress_tensor: null
pressure_GPa: null
xred      :
- [  3.3333E-01,   6.6667E-01,   0.0000E+00, Mo]
- [  6.6667E-01,   3.3333E-01,  -9.1944E-02,  S]
- [  6.6667E-01,   3.3333E-01,   9.1944E-02,  S]
cartesian_forces: null
force_length_stats: {min: null, max: null, mean: null, }
...

 Integrated electronic density in atomic spheres:
 ------------------------------------------------
 Atom  Sphere_radius  Integrated_density
    1        2.00000         10.42085540
    2        2.00000          3.81736720
    3        2.00000          3.81685325
================================================================================
 
 ----iterations are completed or convergence reached----
 
 Mean square residual over all n,k,spin=   21.786E-13; max=  72.325E-12
 reduced coordinates (array xred) for    3 atoms
       0.333333333333      0.666666666667      0.000000000000
       0.666666666667      0.333333333333     -0.091944235000
       0.666666666667      0.333333333333      0.091944235000
 
 cartesian coordinates (angstrom) at end:
    1      1.57500000000000     0.90932667396900     0.00000000000000
    2      1.57500000000000    -0.90932667396900    -1.83888470000000
    3      1.57500000000000    -0.90932667396900     1.83888470000000
 length scales=  5.952637318590  5.952637318590 37.794522657713 bohr
              =  3.150000000000  3.150000000000 20.000000000000 angstroms
 prteigrs : about to open file mos2o_DS2_EIG
 Eigenvalues (   eV  ) for nkpt=  68  k points:
 kpt#   1, nband=  8, wtk=  1.00000, kpt=  0.0000  0.0000  0.0000 (reduced coord)
 -61.86093  -35.95493  -35.64827  -35.64661  -14.79744  -14.18355   -6.32258   -3.73827
 kpt#   2, nband=  8, wtk=  1.00000, kpt=  0.0294  0.0000  0.0000 (reduced coord)
 -61.86032  -35.95356  -35.65070  -35.64791  -14.78507  -14.17508   -6.30559   -3.74647
 kpt#   3, nband=  8, wtk=  1.00000, kpt=  0.0588  0.0000  0.0000 (reduced coord)
 -61.85976  -35.95325  -35.66002  -35.65031  -14.74818  -14.14994   -6.25546   -3.77114
 kpt#   4, nband=  8, wtk=  1.00000, kpt=  0.0882  0.0000  0.0000 (reduced coord)
 -61.85803  -35.95050  -35.67477  -35.65405  -14.68730  -14.10838   -6.17367   -3.81205
 kpt#   5, nband=  8, wtk=  1.00000, kpt=  0.1176  0.0000  0.0000 (reduced coord)
 -61.85506  -35.94644  -35.69424  -35.65765  -14.60331  -14.05106   -6.06322   -3.86925
 kpt#   6, nband=  8, wtk=  1.00000, kpt=  0.1471  0.0000  0.0000 (reduced coord)
 -61.85267  -35.94286  -35.71920  -35.66393  -14.49762  -13.97901   -5.92886   -3.94414
 kpt#   7, nband=  8, wtk=  1.00000, kpt=  0.1765  0.0000  0.0000 (reduced coord)
 -61.84921  -35.93766  -35.74718  -35.67033  -14.37196  -13.89340   -5.77698   -4.03634
 kpt#   8, nband=  8, wtk=  1.00000, kpt=  0.2059  0.0000  0.0000 (reduced coord)
 -61.84546  -35.93272  -35.77786  -35.67663  -14.22857  -13.79599   -5.61697   -4.12983
 kpt#   9, nband=  8, wtk=  1.00000, kpt=  0.2353  0.0000  0.0000 (reduced coord)
 -61.84116  -35.92631  -35.80877  -35.68455  -14.07031  -13.68879   -5.46298   -4.27250
 kpt#  10, nband=  8, wtk=  1.00000, kpt=  0.2647  0.0000  0.0000 (reduced coord)
 -61.83740  -35.92028  -35.84169  -35.69255  -13.90082  -13.57453   -5.34154   -4.48829
 kpt#  11, nband=  8, wtk=  1.00000, kpt=  0.2941  0.0000  0.0000 (reduced coord)
 -61.83322  -35.91403  -35.87356  -35.69945  -13.72444  -13.45644   -5.30928   -4.69097
 kpt#  12, nband=  8, wtk=  1.00000, kpt=  0.3235  0.0000  0.0000 (reduced coord)
 -61.82952  -35.90838  -35.90440  -35.70598  -13.54657  -13.33837   -5.44855   -4.96832
 kpt#  13, nband=  8, wtk=  1.00000, kpt=  0.3529  0.0000  0.0000 (reduced coord)
 -61.82724  -35.93385  -35.90475  -35.71272  -13.37385  -13.22495   -5.68849   -5.20895
 kpt#  14, nband=  8, wtk=  1.00000, kpt=  0.3824  0.0000  0.0000 (reduced coord)
 -61.82417  -35.95817  -35.89973  -35.71782  -13.21394  -13.12118   -5.93900   -5.43206
 kpt#  15, nband=  8, wtk=  1.00000, kpt=  0.4118  0.0000  0.0000 (reduced coord)
 -61.82154  -35.97740  -35.89574  -35.72197  -13.07581  -13.03242   -6.15984   -5.62105
 kpt#  16, nband=  8, wtk=  1.00000, kpt=  0.4412  0.0000  0.0000 (reduced coord)
 -61.82062  -35.99248  -35.89341  -35.72717  -12.97094  -12.96164   -6.33098   -5.76502
 kpt#  17, nband=  8, wtk=  1.00000, kpt=  0.4706  0.0000  0.0000 (reduced coord)
 -61.81997  -36.00188  -35.89226  -35.72968  -12.92281  -12.89823   -6.43921   -5.85495
 kpt#  18, nband=  8, wtk=  1.00000, kpt=  0.5000  0.0000  0.0000 (reduced coord)
 -61.82006  -36.00556  -35.89240  -35.73053  -12.90792  -12.87485   -6.47627   -5.88554
 kpt#  19, nband=  8, wtk=  1.00000, kpt=  0.4833  0.0333  0.0000 (reduced coord)
 -61.81974  -36.00455  -35.89160  -35.73269  -12.90340  -12.86917   -6.46131   -5.87967
 kpt#  20, nband=  8, wtk=  1.00000, kpt=  0.4667  0.0667  0.0000 (reduced coord)
 -61.81854  -35.99979  -35.88997  -35.73918  -12.89013  -12.85242   -6.41663   -5.86258
 kpt#  21, nband=  8, wtk=  1.00000, kpt=  0.4500  0.1000  0.0000 (reduced coord)
 -61.81801  -35.99362  -35.88886  -35.75144  -12.86899  -12.82562   -6.34327   -5.83602
 kpt#  22, nband=  8, wtk=  1.00000, kpt=  0.4333  0.1333  0.0000 (reduced coord)
 -61.81734  -35.98418  -35.88796  -35.76822  -12.84143  -12.79042   -6.24261   -5.80298
 kpt#  23, nband=  8, wtk=  1.00000, kpt=  0.4167  0.1667  0.0000 (reduced coord)
 -61.81684  -35.97411  -35.88715  -35.78739  -12.80944  -12.74928   -6.11692   -5.76787
 kpt#  24, nband=  8, wtk=  1.00000, kpt=  0.4000  0.2000  0.0000 (reduced coord)
 -61.81558  -35.96204  -35.88478  -35.80782  -12.77562  -12.70532   -5.96909   -5.73636
 kpt#  25, nband=  8, wtk=  1.00000, kpt=  0.3833  0.2333  0.0000 (reduced coord)
 -61.81541  -35.94791  -35.88463  -35.83126  -12.74305  -12.66247   -5.80368   -5.71411
 kpt#  26, nband=  8, wtk=  1.00000, kpt=  0.3667  0.2667  0.0000 (reduced coord)
 -61.81494  -35.93243  -35.88403  -35.85376  -12.71522  -12.62535   -5.70617   -5.62939
 kpt#  27, nband=  8, wtk=  1.00000, kpt=  0.3500  0.3000  0.0000 (reduced coord)
 -61.81425  -35.91682  -35.88299  -35.87355  -12.69588  -12.59912   -5.70828   -5.47020
 kpt#  28, nband=  8, wtk=  1.00000, kpt=  0.3333  0.3333  0.0000 (reduced coord)
 -61.81466  -35.90610  -35.88743  -35.88326  -12.68867  -12.58922   -5.71189   -5.39499
 kpt#  29, nband=  8, wtk=  1.00000, kpt=  0.3500  0.3500  0.0250 (reduced coord)
 -61.81454  -35.91627  -35.88341  -35.87471  -12.69586  -12.59913   -5.70831   -5.47014
 kpt#  30, nband=  8, wtk=  1.00000, kpt=  0.3667  0.3667  0.0500 (reduced coord)
 -61.81487  -35.93136  -35.88402  -35.85459  -12.71519  -12.62536   -5.70623   -5.62932
 kpt#  31, nband=  8, wtk=  1.00000, kpt=  0.3833  0.3833  0.0750 (reduced coord)
 -61.81506  -35.94663  -35.88413  -35.83179  -12.74300  -12.66248   -5.80362   -5.71463
 kpt#  32, nband=  8, wtk=  1.00000, kpt=  0.4000  0.4000  0.1000 (reduced coord)
 -61.81595  -35.96162  -35.88507  -35.80920  -12.77557  -12.70537   -5.96904   -5.73645
 kpt#  33, nband=  8, wtk=  1.00000, kpt=  0.4167  0.4167  0.1250 (reduced coord)
 -61.81647  -35.97353  -35.88623  -35.78760  -12.80938  -12.74932   -6.11687   -5.76790
 kpt#  34, nband=  8, wtk=  1.00000, kpt=  0.4333  0.4333  0.1500 (reduced coord)
 -61.81758  -35.98375  -35.88857  -35.76890  -12.84136  -12.79047   -6.24256   -5.80307
 kpt#  35, nband=  8, wtk=  1.00000, kpt=  0.4500  0.4500  0.1750 (reduced coord)
 -61.81833  -35.99314  -35.88944  -35.75245  -12.86892  -12.82567   -6.34323   -5.83612
 kpt#  36, nband=  8, wtk=  1.00000, kpt=  0.4667  0.4667  0.2000 (reduced coord)
 -61.81905  -35.99961  -35.89060  -35.74049  -12.89006  -12.85248   -6.41661   -5.86267
 kpt#  37, nband=  8, wtk=  1.00000, kpt=  0.4833  0.4833  0.2250 (reduced coord)
 -61.81906  -36.00297  -35.89034  -35.73314  -12.90331  -12.86920   -6.46122   -5.87969
 kpt#  38, nband=  8, wtk=  1.00000, kpt=  0.5000  0.5000  0.2500 (reduced coord)
 -61.81940  -36.00405  -35.89096  -35.73119  -12.90783  -12.87488   -6.47618   -5.88548
 kpt#  39, nband=  8, wtk=  1.00000, kpt=  0.5167  0.5167  0.2750 (reduced coord)
 -61.81913  -36.00303  -35.89051  -35.73317  -12.90331  -12.86920   -6.46122   -5.87969
 kpt#  40, nband=  8, wtk=  1.00000, kpt=  0.5333  0.5333  0.3000 (reduced coord)
 -61.81889  -35.99970  -35.88998  -35.74049  -12.89005  -12.85248   -6.41661   -5.86264
 kpt#  41, nband=  8, wtk=  1.00000, kpt=  0.5500  0.5500  0.3250 (reduced coord)
 -61.81836  -35.99315  -35.88918  -35.75280  -12.86892  -12.82568   -6.34323   -5.83610
 kpt#  42, nband=  8, wtk=  1.00000, kpt=  0.5667  0.5667  0.3500 (reduced coord)
 -61.81680  -35.98330  -35.88758  -35.76763  -12.84136  -12.79046   -6.24253   -5.80303
 kpt#  43, nband=  8, wtk=  1.00000, kpt=  0.5833  0.5833  0.3750 (reduced coord)
 -61.81692  -35.97366  -35.88696  -35.78835  -12.80939  -12.74932   -6.11687   -5.76790
 kpt#  44, nband=  8, wtk=  1.00000, kpt=  0.6000  0.6000  0.4000 (reduced coord)
 -61.81633  -35.96112  -35.88594  -35.81017  -12.77557  -12.70535   -5.96902   -5.73645
 kpt#  45, nband=  8, wtk=  1.00000, kpt=  0.6167  0.6167  0.4250 (reduced coord)
 -61.81512  -35.94685  -35.88425  -35.83161  -12.74300  -12.66249   -5.80363   -5.71462
 kpt#  46, nband=  8, wtk=  1.00000, kpt=  0.6333  0.6333  0.4500 (reduced coord)
 -61.81488  -35.93204  -35.88382  -35.85414  -12.71520  -12.62536   -5.70624   -5.62935
 kpt#  47, nband=  8, wtk=  1.00000, kpt=  0.6500  0.6500  0.4750 (reduced coord)
 -61.81425  -35.91623  -35.88261  -35.87453  -12.69586  -12.59913   -5.70831   -5.47013
 kpt#  48, nband=  8, wtk=  1.00000, kpt=  0.6667  0.6667  0.5000 (reduced coord)
 -61.81407  -35.90536  -35.88670  -35.88274  -12.68867  -12.58921   -5.71189   -5.39490
 kpt#  49, nband=  8, wtk=  1.00000, kpt=  0.6833  0.6833  0.5250 (reduced coord)
 -61.81448  -35.91624  -35.88269  -35.87499  -12.69685  -12.60073   -5.70369   -5.45863
 kpt#  50, nband=  8, wtk=  1.00000, kpt=  0.7000  0.7000  0.5500 (reduced coord)
 -61.81433  -35.92727  -35.88331  -35.85555  -12.72279  -12.63784   -5.67096   -5.56389
 kpt#  51, nband=  8, wtk=  1.00000, kpt=  0.7167  0.7167  0.5750 (reduced coord)
 -61.81573  -35.93654  -35.88519  -35.83648  -12.76775  -12.70315   -5.63848   -5.60379
 kpt#  52, nband=  8, wtk=  1.00000, kpt=  0.7333  0.7333  0.6000 (reduced coord)
 -61.81735  -35.94000  -35.88747  -35.81780  -12.83178  -12.79683   -5.66000   -5.49735
 kpt#  53, nband=  8, wtk=  1.00000, kpt=  0.7500  0.7500  0.6250 (reduced coord)
 -61.81905  -35.93727  -35.89071  -35.79875  -12.92043  -12.90995   -5.62474   -5.34912
 kpt#  54, nband=  8, wtk=  1.00000, kpt=  0.7667  0.7667  0.6500 (reduced coord)
 -61.82189  -35.93092  -35.89474  -35.78089  -13.06164  -13.00816   -5.53595   -5.16204
 kpt#  55, nband=  8, wtk=  1.00000, kpt=  0.7833  0.7833  0.6750 (reduced coord)
 -61.82443  -35.91813  -35.89907  -35.76300  -13.22230  -13.11612   -5.40260   -4.93796
 kpt#  56, nband=  8, wtk=  1.00000, kpt=  0.8000  0.8000  0.7000 (reduced coord)
 -61.82749  -35.90427  -35.90060  -35.74620  -13.39484  -13.23197   -5.24566   -4.66763
 kpt#  57, nband=  8, wtk=  1.00000, kpt=  0.8167  0.8167  0.7250 (reduced coord)
 -61.83063  -35.90923  -35.87877  -35.73054  -13.57335  -13.35204   -5.12904   -4.64392
 kpt#  58, nband=  8, wtk=  1.00000, kpt=  0.8333  0.8333  0.7500 (reduced coord)
 -61.83426  -35.91529  -35.85353  -35.71619  -13.75241  -13.47282   -5.16011   -4.51966
 kpt#  59, nband=  8, wtk=  1.00000, kpt=  0.8500  0.8500  0.7750 (reduced coord)
 -61.83782  -35.92134  -35.82540  -35.70296  -13.92713  -13.59104   -5.29203   -4.28165
 kpt#  60, nband=  8, wtk=  1.00000, kpt=  0.8667  0.8667  0.8000 (reduced coord)
 -61.84174  -35.92748  -35.79722  -35.69069  -14.09338  -13.70380   -5.45540   -4.15002
 kpt#  61, nband=  8, wtk=  1.00000, kpt=  0.8833  0.8833  0.8250 (reduced coord)
 -61.84575  -35.93261  -35.76925  -35.68071  -14.24753  -13.80857   -5.62525   -4.07885
 kpt#  62, nband=  8, wtk=  1.00000, kpt=  0.9000  0.9000  0.8500 (reduced coord)
 -61.84967  -35.93850  -35.74182  -35.67178  -14.38662  -13.90330   -5.78967   -3.99746
 kpt#  63, nband=  8, wtk=  1.00000, kpt=  0.9167  0.9167  0.8750 (reduced coord)
 -61.85277  -35.94318  -35.71575  -35.66388  -14.50819  -13.98618   -5.94056   -3.92748
 kpt#  64, nband=  8, wtk=  1.00000, kpt=  0.9333  0.9333  0.9000 (reduced coord)
 -61.85555  -35.94689  -35.69315  -35.65758  -14.61028  -14.05581   -6.07190   -3.86210
 kpt#  65, nband=  8, wtk=  1.00000, kpt=  0.9500  0.9500  0.9250 (reduced coord)
 -61.85772  -35.94998  -35.67395  -35.65287  -14.69127  -14.11107   -6.17885   -3.80892
 kpt#  66, nband=  8, wtk=  1.00000, kpt=  0.9667  0.9667  0.9500 (reduced coord)
 -61.85970  -35.95306  -35.66007  -35.64960  -14.74997  -14.15115   -6.25787   -3.76992
 kpt#  67, nband=  8, wtk=  1.00000, kpt=  0.9833  0.9833  0.9750 (reduced coord)
 -61.86047  -35.95376  -35.65099  -35.64780  -14.78553  -14.17539   -6.30623   -3.74618
 kpt#  68, nband=  8, wtk=  1.00000, kpt=  1.0000  1.0000  1.0000 (reduced coord)
 -61.86093  -35.95493  -35.64827  -35.64661  -14.79744  -14.18355   -6.32258   -3.73826
 
== END DATASET(S) ==============================================================
================================================================================
  
 -outvars: echo values of variables after computation  --------
            acell      5.9526373186E+00  5.9526373186E+00  3.7794522658E+01 Bohr
              amu      9.59400000E+01  3.20660000E+01
      chksymbreak           0
             ecut      2.50000000E+01 Hartree
           enunit1          0
           enunit2          1
           etotal1    -9.2327268562E+01
            fcart1    -2.1648156485E-05 -8.4401484256E-05  1.4918476496E-04
                       2.4763778225E-05  4.1152616281E-05  7.1382840746E-02
                      -3.1156217396E-06  4.3248867975E-05 -7.1532025511E-02
-          fftalg         512
           getden1          0
           getden2         -1
             iscf1          7
             iscf2         -2
           istwfk1       4    0    0    5    0    0    0    0    0    0
                         0    0    0    0    0    0    8    0    0    9
           istwfk2       2    0    0    0    0    0    0    0    0    0
                         0    0    0    0    0    0    0    3    0    0
                         0    0    0    0    0    0    0    0    0    0
                         0    0    0    0    0    0    0    0    0    0
                         0    0    0    0    0    0    0    0    0    0
                       outvar_i_n : Printing only first  50 k-points.
              ixc          11
           jdtset        1    2
              kpt1     0.00000000E+00  0.00000000E+00  5.00000000E-01
                       1.66666667E-01  0.00000000E+00  5.00000000E-01
                       3.33333333E-01  0.00000000E+00  5.00000000E-01
                       5.00000000E-01  0.00000000E+00  5.00000000E-01
                       0.00000000E+00  1.66666667E-01  5.00000000E-01
                       1.66666667E-01  1.66666667E-01  5.00000000E-01
                       3.33333333E-01  1.66666667E-01  5.00000000E-01
                       5.00000000E-01  1.66666667E-01  5.00000000E-01
                      -3.33333333E-01  1.66666667E-01  5.00000000E-01
                      -1.66666667E-01  1.66666667E-01  5.00000000E-01
                       0.00000000E+00  3.33333333E-01  5.00000000E-01
                       1.66666667E-01  3.33333333E-01  5.00000000E-01
                       3.33333333E-01  3.33333333E-01  5.00000000E-01
                       5.00000000E-01  3.33333333E-01  5.00000000E-01
                      -3.33333333E-01  3.33333333E-01  5.00000000E-01
                      -1.66666667E-01  3.33333333E-01  5.00000000E-01
                       0.00000000E+00  5.00000000E-01  5.00000000E-01
                       1.66666667E-01  5.00000000E-01  5.00000000E-01
                       3.33333333E-01  5.00000000E-01  5.00000000E-01
                       5.00000000E-01  5.00000000E-01  5.00000000E-01
              kpt2     0.00000000E+00  0.00000000E+00  0.00000000E+00
                       2.94117647E-02  0.00000000E+00  0.00000000E+00
                       5.88235294E-02  0.00000000E+00  0.00000000E+00
                       8.82352941E-02  0.00000000E+00  0.00000000E+00
                       1.17647059E-01  0.00000000E+00  0.00000000E+00
                       1.47058824E-01  0.00000000E+00  0.00000000E+00
                       1.76470588E-01  0.00000000E+00  0.00000000E+00
                       2.05882353E-01  0.00000000E+00  0.00000000E+00
                       2.35294118E-01  0.00000000E+00  0.00000000E+00
                       2.64705882E-01  0.00000000E+00  0.00000000E+00
                       2.94117647E-01  0.00000000E+00  0.00000000E+00
                       3.23529412E-01  0.00000000E+00  0.00000000E+00
                       3.52941176E-01  0.00000000E+00  0.00000000E+00
                       3.82352941E-01  0.00000000E+00  0.00000000E+00
                       4.11764706E-01  0.00000000E+00  0.00000000E+00
                       4.41176471E-01  0.00000000E+00  0.00000000E+00
                       4.70588235E-01  0.00000000E+00  0.00000000E+00
                       5.00000000E-01  0.00000000E+00  0.00000000E+00
                       4.83333333E-01  3.33333333E-02  0.00000000E+00
                       4.66666667E-01  6.66666667E-02  0.00000000E+00
                       4.50000000E-01  1.00000000E-01  0.00000000E+00
                       4.33333333E-01  1.33333333E-01  0.00000000E+00
                       4.16666667E-01  1.66666667E-01  0.00000000E+00
                       4.00000000E-01  2.00000000E-01  0.00000000E+00
                       3.83333333E-01  2.33333333E-01  0.00000000E+00
                       3.66666667E-01  2.66666667E-01  0.00000000E+00
                       3.50000000E-01  3.00000000E-01  0.00000000E+00
                       3.33333333E-01  3.33333333E-01  0.00000000E+00
                       3.50000000E-01  3.50000000E-01  2.50000000E-02
                       3.66666667E-01  3.66666667E-01  5.00000000E-02
                       3.83333333E-01  3.83333333E-01  7.50000000E-02
                       4.00000000E-01  4.00000000E-01  1.00000000E-01
                       4.16666667E-01  4.16666667E-01  1.25000000E-01
                       4.33333333E-01  4.33333333E-01  1.50000000E-01
                       4.50000000E-01  4.50000000E-01  1.75000000E-01
                       4.66666667E-01  4.66666667E-01  2.00000000E-01
                       4.83333333E-01  4.83333333E-01  2.25000000E-01
                       5.00000000E-01  5.00000000E-01  2.50000000E-01
                       5.16666667E-01  5.16666667E-01  2.75000000E-01
                       5.33333333E-01  5.33333333E-01  3.00000000E-01
                       5.50000000E-01  5.50000000E-01  3.25000000E-01
                       5.66666667E-01  5.66666667E-01  3.50000000E-01
                       5.83333333E-01  5.83333333E-01  3.75000000E-01
                       6.00000000E-01  6.00000000E-01  4.00000000E-01
                       6.16666667E-01  6.16666667E-01  4.25000000E-01
                       6.33333333E-01  6.33333333E-01  4.50000000E-01
                       6.50000000E-01  6.50000000E-01  4.75000000E-01
                       6.66666667E-01  6.66666667E-01  5.00000000E-01
                       6.83333333E-01  6.83333333E-01  5.25000000E-01
                       7.00000000E-01  7.00000000E-01  5.50000000E-01
                       outvar_i_n : Printing only first  50 k-points.
           kptopt1          1
           kptopt2         -3
         kptrlatt        6    0    0      0    6    0      0    0    1
          kptrlen1     3.57158239E+01
          kptrlen2     3.00000000E+01
P           mkmem1         20
P           mkmem2         68
            natom           3
            nband1         14
            nband2          8
           nbdbuf1          0
           nbdbuf2          2
           ndtset           2
           ndivsm1          0
           ndivsm2         10
            ngfft          30      30     180
             nkpt1         20
             nkpt2         68
            nstep          10
             nsym           1
           ntypat           2
              occ      2.000000  2.000000  2.000000  2.000000  2.000000  2.000000
                       2.000000  2.000000  2.000000  2.000000  2.000000  2.000000
                       2.000000  0.000000
            rprim      5.0000000000E-01 -8.6602540378E-01  0.0000000000E+00
                       5.0000000000E-01  8.6602540378E-01  0.0000000000E+00
                       0.0000000000E+00  0.0000000000E+00  1.0000000000E+00
           shiftk1     0.00000000E+00  0.00000000E+00  5.00000000E-01
           shiftk2     5.00000000E-01  5.00000000E-01  5.00000000E-01
          spgroup           1
           strten1     1.4458834445E-04  1.4603996338E-04  4.2351693733E-04
                       4.9145676037E-08  5.9246662468E-08 -4.0202826321E-07
           toldfe1     1.00000000E-06 Hartree
           toldfe2     0.00000000E+00 Hartree
           tolwfr1     0.00000000E+00
           tolwfr2     1.00000000E-12
            typat      1  2  2
              wtk1       0.02778    0.05556    0.05556    0.02778    0.05556    0.05556
                         0.05556    0.05556    0.05556    0.05556    0.05556    0.05556
                         0.05556    0.05556    0.05556    0.05556    0.02778    0.05556
                         0.05556    0.02778
              wtk2       1.00000    1.00000    1.00000    1.00000    1.00000    1.00000
                         1.00000    1.00000    1.00000    1.00000    1.00000    1.00000
                         1.00000    1.00000    1.00000    1.00000    1.00000    1.00000
                         1.00000    1.00000    1.00000    1.00000    1.00000    1.00000
                         1.00000    1.00000    1.00000    1.00000    1.00000    1.00000
                         1.00000    1.00000    1.00000    1.00000    1.00000    1.00000
                         1.00000    1.00000    1.00000    1.00000    1.00000    1.00000
                         1.00000    1.00000    1.00000    1.00000    1.00000    1.00000
                         1.00000    1.00000
                       outvars : Printing only first  50 k-points.
           xangst      1.5750000000E+00  9.0932667397E-01  0.0000000000E+00
                       1.5750000000E+00 -9.0932667397E-01 -1.8388847000E+00
                       1.5750000000E+00 -9.0932667397E-01  1.8388847000E+00
            xcart      2.9763186593E+00  1.7183783791E+00  0.0000000000E+00
                       2.9763186593E+00 -1.7183783791E+00 -3.4749884730E+00
                       2.9763186593E+00 -1.7183783791E+00  3.4749884730E+00
             xred      3.3333333333E-01  6.6666666667E-01  0.0000000000E+00
                       6.6666666667E-01  3.3333333333E-01 -9.1944235000E-02
                       6.6666666667E-01  3.3333333333E-01  9.1944235000E-02
            znucl       42.00000   16.00000
 
================================================================================


- Timing analysis has been suppressed with timopt=0



================================================================================

 Suggested references for the acknowledgment of ABINIT usage.

 The users of ABINIT have little formal obligations with respect to the ABINIT group
 (those specified in the GNU General Public License, http://www.gnu.org/copyleft/gpl.txt).
 However, it is common practice in the scientific literature,
 to acknowledge the efforts of people that have made the research possible.
 In this spirit, please find below suggested citations of work written by ABINIT developers,
 corresponding to implementations inside of ABINIT that you have used in the present run.
 Note also that it will be of great value to readers of publications presenting these results,
 to read papers enabling them to understand the theoretical formalism and details
 of the ABINIT implementation.
 For information on why they are suggested, see also https://docs.abinit.org/theory/acknowledgments.
-
- [1] The Abinit project: Impact, environment and recent developments.
- Computer Phys. Comm. 248, 107042 (2020).
- X.Gonze, B. Amadon, G. Antonius, F.Arnardi, L.Baguet, J.-M.Beuken,
- J.Bieder, F.Bottin, J.Bouchet, E.Bousquet, N.Brouwer, F.Bruneval,
- G.Brunin, T.Cavignac, J.-B. Charraud, Wei Chen, M.Cote, S.Cottenier,
- J.Denier, G.Geneste, Ph.Ghosez, M.Giantomassi, Y.Gillet, O.Gingras,
- D.R.Hamann, G.Hautier, Xu He, N.Helbig, N.Holzwarth, Y.Jia, F.Jollet,
- W.Lafargue-Dit-Hauret, K.Lejaeghere, M.A.L.Marques, A.Martin, C.Martins,
- H.P.C. Miranda, F.Naccarato, K. Persson, G.Petretto, V.Planes, Y.Pouillon,
- S.Prokhorenko, F.Ricci, G.-M.Rignanese, A.H.Romero, M.M.Schmitt, M.Torrent,
- M.J.van Setten, B.Van Troeye, M.J.Verstraete, G.Zerah and J.W.Zwanzig
- Comment: the fifth generic paper describing the ABINIT project.
- Note that a version of this paper, that is not formatted for Computer Phys. Comm. 
- is available at https://www.abinit.org/sites/default/files/ABINIT20.pdf .
- The licence allows the authors to put it on the Web.
- DOI and bibtex: see https://docs.abinit.org/theory/bibliography/#gonze2020
-
- [2] Optimized norm-conserving Vanderbilt pseudopotentials.
- D.R. Hamann, Phys. Rev. B 88, 085117 (2013).
- Comment: Some pseudopotential generated using the ONCVPSP code were used.
- DOI and bibtex: see https://docs.abinit.org/theory/bibliography/#hamann2013
-
- [3] ABINIT: Overview, and focus on selected capabilities
- J. Chem. Phys. 152, 124102 (2020).
- A. Romero, D.C. Allan, B. Amadon, G. Antonius, T. Applencourt, L.Baguet,
- J.Bieder, F.Bottin, J.Bouchet, E.Bousquet, F.Bruneval,
- G.Brunin, D.Caliste, M.Cote,
- J.Denier, C. Dreyer, Ph.Ghosez, M.Giantomassi, Y.Gillet, O.Gingras,
- D.R.Hamann, G.Hautier, F.Jollet, G. Jomard,
- A.Martin, 
- H.P.C. Miranda, F.Naccarato, G.Petretto, N.A. Pike, V.Planes,
- S.Prokhorenko, T. Rangel, F.Ricci, G.-M.Rignanese, M.Royo, M.Stengel, M.Torrent,
- M.J.van Setten, B.Van Troeye, M.J.Verstraete, J.Wiktor, J.W.Zwanziger, and X.Gonze.
- Comment: a global overview of ABINIT, with focus on selected capabilities .
- Note that a version of this paper, that is not formatted for J. Chem. Phys 
- is available at https://www.abinit.org/sites/default/files/ABINIT20_JPC.pdf .
- The licence allows the authors to put it on the Web.
- DOI and bibtex: see https://docs.abinit.org/theory/bibliography/#romero2020
-
- [4] Recent developments in the ABINIT software package.
- Computer Phys. Comm. 205, 106 (2016).
- X.Gonze, F.Jollet, F.Abreu Araujo, D.Adams, B.Amadon, T.Applencourt,
- C.Audouze, J.-M.Beuken, J.Bieder, A.Bokhanchuk, E.Bousquet, F.Bruneval
- D.Caliste, M.Cote, F.Dahm, F.Da Pieve, M.Delaveau, M.Di Gennaro,
- B.Dorado, C.Espejo, G.Geneste, L.Genovese, A.Gerossier, M.Giantomassi,
- Y.Gillet, D.R.Hamann, L.He, G.Jomard, J.Laflamme Janssen, S.Le Roux,
- A.Levitt, A.Lherbier, F.Liu, I.Lukacevic, A.Martin, C.Martins,
- M.J.T.Oliveira, S.Ponce, Y.Pouillon, T.Rangel, G.-M.Rignanese,
- A.H.Romero, B.Rousseau, O.Rubel, A.A.Shukri, M.Stankovski, M.Torrent,
- M.J.Van Setten, B.Van Troeye, M.J.Verstraete, D.Waroquier, J.Wiktor,
- B.Xu, A.Zhou, J.W.Zwanziger.
- Comment: the fourth generic paper describing the ABINIT project.
- Note that a version of this paper, that is not formatted for Computer Phys. Comm. 
- is available at https://www.abinit.org/sites/default/files/ABINIT16.pdf .
- The licence allows the authors to put it on the Web.
- DOI and bibtex: see https://docs.abinit.org/theory/bibliography/#gonze2016
-
- And optionally:
-
- [5] ABINIT: First-principles approach of materials and nanosystem properties.
- Computer Phys. Comm. 180, 2582-2615 (2009).
- X. Gonze, B. Amadon, P.-M. Anglade, J.-M. Beuken, F. Bottin, P. Boulanger, F. Bruneval,
- D. Caliste, R. Caracas, M. Cote, T. Deutsch, L. Genovese, Ph. Ghosez, M. Giantomassi
- S. Goedecker, D.R. Hamann, P. Hermet, F. Jollet, G. Jomard, S. Leroux, M. Mancini, S. Mazevet,
- M.J.T. Oliveira, G. Onida, Y. Pouillon, T. Rangel, G.-M. Rignanese, D. Sangalli, R. Shaltaf,
- M. Torrent, M.J. Verstraete, G. Zerah, J.W. Zwanziger
- Comment: the third generic paper describing the ABINIT project.
- Note that a version of this paper, that is not formatted for Computer Phys. Comm. 
- is available at https://www.abinit.org/sites/default/files/ABINIT_CPC_v10.pdf .
- The licence allows the authors to put it on the Web.
- DOI and bibtex: see https://docs.abinit.org/theory/bibliography/#gonze2009
-
- Proc.   0 individual time (sec): cpu=         94.1  wall=         95.8
 
================================================================================
 
 Calculation completed.
.Delivered  63 WARNINGs and  10 COMMENTs to log file.
+Overall time at end (sec) : cpu=         94.1  wall=         95.8
