
.Version 9.10.3 of ABINIT 
.(MPI version, prepared for a x86_64_linux_intel2021.6 computer) 

.Copyright (C) 1998-2022 ABINIT group . 
 ABINIT comes with ABSOLUTELY NO WARRANTY.
 It is free software, and you are welcome to redistribute it
 under certain conditions (GNU General Public License,
 see ~abinit/COPYING or http://www.gnu.org/copyleft/gpl.txt).

 ABINIT is a project of the Universite Catholique de Louvain,
 Corning Inc. and other collaborators, see ~abinit/doc/developers/contributors.txt .
 Please read https://docs.abinit.org/theory/acknowledgments for suggested
 acknowledgments of the ABINIT effort.
 For more information, see https://www.abinit.org .

.Starting date : Mon  5 May 2025.
- ( at 17h09 )
  
- input  file    -> mos2.abi
- output file    -> mos2.abo
- root for input  files -> mos2i
- root for output files -> mos2o
 
 
 DATASET    1 : space group P1 (#  1); Bravais aP (primitive triclinic)
================================================================================
 Values of the parameters that define the memory need for DATASET  1.
     intxc =       0    ionmov =       0      iscf =       7    lmnmax =       6
     lnmax =       6     mgfft =     120  mpssoang =       3    mqgrid =    5894
     natom =       3  nloc_mem =       1    nspden =       1   nspinor =       1
    nsppol =       1      nsym =       1    n1xccc =    2501    ntypat =       2
    occopt =       1   xclevel =       2
-    mband =          14        mffmem =           1         mkmem =           2
       mpw =        2310          nfft =       48000          nkpt =           2
================================================================================
P This job should need less than                      17.285 Mbytes of memory.
  Rough estimation (10% accuracy) of disk space for files :
_ WF disk file :      0.989 Mbytes ; DEN or POT disk file :      0.368 Mbytes.
================================================================================
 
 
 DATASET    2 : space group P1 (#  1); Bravais aP (primitive triclinic)
================================================================================
 Values of the parameters that define the memory need for DATASET  2.
     intxc =       0    ionmov =       0      iscf =      -2    lmnmax =       6
     lnmax =       6     mgfft =     120  mpssoang =       3    mqgrid =    5894
     natom =       3  nloc_mem =       1    nspden =       1   nspinor =       1
    nsppol =       1      nsym =       1    n1xccc =    2501    ntypat =       2
    occopt =       1   xclevel =       2
-    mband =           8        mffmem =           1         mkmem =          77
       mpw =        2327          nfft =       48000          nkpt =          77
================================================================================
P This job should need less than                      34.412 Mbytes of memory.
  Rough estimation (10% accuracy) of disk space for files :
_ WF disk file :     21.874 Mbytes ; DEN or POT disk file :      0.368 Mbytes.
================================================================================
 
--------------------------------------------------------------------------------
------------- Echo of variables that govern the present computation ------------
--------------------------------------------------------------------------------
-
- outvars: echo of selected default values                                      
-   iomode0 =  0 , fftalg0 =512 , wfoptalg0 =  0
-
- outvars: echo of global parameters not present in the input file              
-  max_nthreads =    0
-
 -outvars: echo values of preprocessed input variables --------
            acell      5.9526373186E+00  5.9526373186E+00  3.7794522658E+01 Bohr
              amu      9.59400000E+01  3.20660000E+01
      chksymbreak           0
             ecut      1.20000000E+01 Hartree
-          fftalg         512
           getden1          0
           getden2         -1
             iscf1          7
             iscf2         -2
           istwfk1       2    0
           istwfk2       2    0    0    0    0    0    0    0    0    0
                         0    0    0    0    0    0    0    0    0    0
                         0    0    0    0    0    0    0    0    0    0
                         3    0    0    0    0    0    0    0    0    0
                         0    0    0    0    0    0    0    0    0    0
                       outvar_i_n : Printing only first  50 k-points.
              ixc          11
           jdtset        1    2
              kpt1     0.00000000E+00  0.00000000E+00  0.00000000E+00
                       3.33333333E-01  0.00000000E+00  0.00000000E+00
              kpt2     0.00000000E+00  0.00000000E+00  0.00000000E+00
                       1.66666667E-02  1.66666667E-02  0.00000000E+00
                       3.33333333E-02  3.33333333E-02  0.00000000E+00
                       5.00000000E-02  5.00000000E-02  0.00000000E+00
                       6.66666667E-02  6.66666667E-02  0.00000000E+00
                       8.33333333E-02  8.33333333E-02  0.00000000E+00
                       1.00000000E-01  1.00000000E-01  0.00000000E+00
                       1.16666667E-01  1.16666667E-01  0.00000000E+00
                       1.33333333E-01  1.33333333E-01  0.00000000E+00
                       1.50000000E-01  1.50000000E-01  0.00000000E+00
                       1.66666667E-01  1.66666667E-01  0.00000000E+00
                       1.83333333E-01  1.83333333E-01  0.00000000E+00
                       2.00000000E-01  2.00000000E-01  0.00000000E+00
                       2.16666667E-01  2.16666667E-01  0.00000000E+00
                       2.33333333E-01  2.33333333E-01  0.00000000E+00
                       2.50000000E-01  2.50000000E-01  0.00000000E+00
                       2.66666667E-01  2.66666667E-01  0.00000000E+00
                       2.83333333E-01  2.83333333E-01  0.00000000E+00
                       3.00000000E-01  3.00000000E-01  0.00000000E+00
                       3.16666667E-01  3.16666667E-01  0.00000000E+00
                       3.33333333E-01  3.33333333E-01  0.00000000E+00
                       3.50000000E-01  3.00000000E-01  0.00000000E+00
                       3.66666667E-01  2.66666667E-01  0.00000000E+00
                       3.83333333E-01  2.33333333E-01  0.00000000E+00
                       4.00000000E-01  2.00000000E-01  0.00000000E+00
                       4.16666667E-01  1.66666667E-01  0.00000000E+00
                       4.33333333E-01  1.33333333E-01  0.00000000E+00
                       4.50000000E-01  1.00000000E-01  0.00000000E+00
                       4.66666667E-01  6.66666667E-02  0.00000000E+00
                       4.83333333E-01  3.33333333E-02  0.00000000E+00
                       5.00000000E-01  0.00000000E+00  0.00000000E+00
                       5.10869565E-01  2.17391304E-02  2.17391304E-02
                       5.21739130E-01  4.34782609E-02  4.34782609E-02
                       5.32608696E-01  6.52173913E-02  6.52173913E-02
                       5.43478261E-01  8.69565217E-02  8.69565217E-02
                       5.54347826E-01  1.08695652E-01  1.08695652E-01
                       5.65217391E-01  1.30434783E-01  1.30434783E-01
                       5.76086957E-01  1.52173913E-01  1.52173913E-01
                       5.86956522E-01  1.73913043E-01  1.73913043E-01
                       5.97826087E-01  1.95652174E-01  1.95652174E-01
                       6.08695652E-01  2.17391304E-01  2.17391304E-01
                       6.19565217E-01  2.39130435E-01  2.39130435E-01
                       6.30434783E-01  2.60869565E-01  2.60869565E-01
                       6.41304348E-01  2.82608696E-01  2.82608696E-01
                       6.52173913E-01  3.04347826E-01  3.04347826E-01
                       6.63043478E-01  3.26086957E-01  3.26086957E-01
                       6.73913043E-01  3.47826087E-01  3.47826087E-01
                       6.84782609E-01  3.69565217E-01  3.69565217E-01
                       6.95652174E-01  3.91304348E-01  3.91304348E-01
                       7.06521739E-01  4.13043478E-01  4.13043478E-01
                       outvar_i_n : Printing only first  50 k-points.
           kptopt1          1
           kptopt2         -3
         kptrlatt        3    0    0      0    1    0      0    0    1
          kptrlen1     5.95263732E+00
          kptrlen2     3.00000000E+01
P           mkmem1          2
P           mkmem2         77
            natom           3
            nband1         14
            nband2          8
           nbdbuf1          0
           nbdbuf2          2
           ndtset           2
           ndivsm1          0
           ndivsm2         10
            ngfft          20      20     120
             nkpt1          2
             nkpt2         77
            nstep          10
             nsym           1
           ntypat           2
              occ      2.000000  2.000000  2.000000  2.000000  2.000000  2.000000
                       2.000000  2.000000  2.000000  2.000000  2.000000  2.000000
                       2.000000  0.000000
            rprim      5.0000000000E-01 -8.6602540378E-01  0.0000000000E+00
                       5.0000000000E-01  8.6602540378E-01  0.0000000000E+00
                       0.0000000000E+00  0.0000000000E+00  1.0000000000E+00
           shiftk1     0.00000000E+00  0.00000000E+00  0.00000000E+00
           shiftk2     5.00000000E-01  5.00000000E-01  5.00000000E-01
          spgroup           1
           toldfe1     1.00000000E-06 Hartree
           toldfe2     0.00000000E+00 Hartree
           tolwfr1     0.00000000E+00
           tolwfr2     1.00000000E-12
            typat      1  2  2
              wtk1       0.33333    0.66667
              wtk2       1.00000    1.00000    1.00000    1.00000    1.00000    1.00000
                         1.00000    1.00000    1.00000    1.00000    1.00000    1.00000
                         1.00000    1.00000    1.00000    1.00000    1.00000    1.00000
                         1.00000    1.00000    1.00000    1.00000    1.00000    1.00000
                         1.00000    1.00000    1.00000    1.00000    1.00000    1.00000
                         1.00000    1.00000    1.00000    1.00000    1.00000    1.00000
                         1.00000    1.00000    1.00000    1.00000    1.00000    1.00000
                         1.00000    1.00000    1.00000    1.00000    1.00000    1.00000
                         1.00000    1.00000
                       outvars : Printing only first  50 k-points.
           xangst      1.5750000000E+00  9.0932667397E-01  0.0000000000E+00
                       1.5750000000E+00 -9.0932667397E-01 -1.8388847000E+00
                       1.5750000000E+00 -9.0932667397E-01  1.8388847000E+00
            xcart      2.9763186593E+00  1.7183783791E+00  0.0000000000E+00
                       2.9763186593E+00 -1.7183783791E+00 -3.4749884730E+00
                       2.9763186593E+00 -1.7183783791E+00  3.4749884730E+00
             xred      3.3333333333E-01  6.6666666667E-01  0.0000000000E+00
                       6.6666666667E-01  3.3333333333E-01 -9.1944235000E-02
                       6.6666666667E-01  3.3333333333E-01  9.1944235000E-02
            znucl       42.00000   16.00000
 
================================================================================
 
 chkinp: Checking input parameters for consistency, jdtset=   1.
 
 chkinp: Checking input parameters for consistency, jdtset=   2.
 
--- !ERROR
src_file: m_parser.F90
src_line: 3763
mpi_rank: 0
message: |
    Found token: `ENUIT2` in the input file.
    This name is not one of the registered input variable names (see https://docs.abinit.org/).
    Action: check your input file. Perhaps you mistyped the input variable,
    or specified "img", although this was not permitted for this input variable.
...
 
