
.Version 9.10.3 of ABINIT 
.(MPI version, prepared for a x86_64_linux_intel2021.6 computer) 

.Copyright (C) 1998-2022 ABINIT group . 
 ABINIT comes with ABSOLUTELY NO WARRANTY.
 It is free software, and you are welcome to redistribute it
 under certain conditions (GNU General Public License,
 see ~abinit/COPYING or http://www.gnu.org/copyleft/gpl.txt).

 ABINIT is a project of the Universite Catholique de Louvain,
 Corning Inc. and other collaborators, see ~abinit/doc/developers/contributors.txt .
 Please read https://docs.abinit.org/theory/acknowledgments for suggested
 acknowledgments of the ABINIT effort.
 For more information, see https://www.abinit.org .

.Starting date : Wed  7 May 2025.
- ( at 07h40 )
  
- input  file    -> mos2_k_draft.abi
- output file    -> mos2_k_draft.abo
- root for input  files -> mos2_k_drafti
- root for output files -> mos2_k_drafto
 
 
 DATASET   11 : space group P1 (#  1); Bravais aP (primitive triclinic)
================================================================================
 Values of the parameters that define the memory need for DATASET 11.
     intxc =       0    ionmov =       2      iscf =       7    lmnmax =       6
     lnmax =       6     mgfft =     180  mpssoang =       3    mqgrid =    8507
     natom =       3  nloc_mem =       1    nspden =       1   nspinor =       1
    nsppol =       1      nsym =       1    n1xccc =    2501    ntypat =       2
    occopt =       1   xclevel =       2
-    mband =          14        mffmem =           1         mkmem =          14
       mpw =        6951          nfft =      162000          nkpt =          14
================================================================================
P This job should need less than                      72.746 Mbytes of memory.
  Rough estimation (10% accuracy) of disk space for files :
_ WF disk file :     20.791 Mbytes ; DEN or POT disk file :      1.238 Mbytes.
================================================================================
 
 
 DATASET   21 : space group P1 (#  1); Bravais aP (primitive triclinic)
================================================================================
 Values of the parameters that define the memory need for DATASET 21.
     intxc =       0    ionmov =       2      iscf =       7    lmnmax =       6
     lnmax =       6     mgfft =     180  mpssoang =       3    mqgrid =    8507
     natom =       3  nloc_mem =       1    nspden =       1   nspinor =       1
    nsppol =       1      nsym =       1    n1xccc =    2501    ntypat =       2
    occopt =       1   xclevel =       2
-    mband =          14        mffmem =           1         mkmem =          14
       mpw =        6951          nfft =      162000          nkpt =          14
================================================================================
P This job should need less than                      72.746 Mbytes of memory.
  Rough estimation (10% accuracy) of disk space for files :
_ WF disk file :     20.791 Mbytes ; DEN or POT disk file :      1.238 Mbytes.
================================================================================
 
 
 DATASET   31 : space group P1 (#  1); Bravais aP (primitive triclinic)
================================================================================
 Values of the parameters that define the memory need for DATASET 31.
     intxc =       0    ionmov =       2      iscf =       7    lmnmax =       6
     lnmax =       6     mgfft =     180  mpssoang =       3    mqgrid =    8507
     natom =       3  nloc_mem =       1    nspden =       1   nspinor =       1
    nsppol =       1      nsym =       1    n1xccc =    2501    ntypat =       2
    occopt =       1   xclevel =       2
-    mband =          14        mffmem =           1         mkmem =          14
       mpw =        6951          nfft =      162000          nkpt =          14
================================================================================
P This job should need less than                      72.746 Mbytes of memory.
  Rough estimation (10% accuracy) of disk space for files :
_ WF disk file :     20.791 Mbytes ; DEN or POT disk file :      1.238 Mbytes.
================================================================================
 
 
 DATASET   41 : space group P1 (#  1); Bravais aP (primitive triclinic)
================================================================================
 Values of the parameters that define the memory need for DATASET 41.
     intxc =       0    ionmov =       2      iscf =       7    lmnmax =       6
     lnmax =       6     mgfft =     180  mpssoang =       3    mqgrid =    8507
     natom =       3  nloc_mem =       1    nspden =       1   nspinor =       1
    nsppol =       1      nsym =       1    n1xccc =    2501    ntypat =       2
    occopt =       1   xclevel =       2
-    mband =          14        mffmem =           1         mkmem =          14
       mpw =        6951          nfft =      162000          nkpt =          14
================================================================================
P This job should need less than                      72.746 Mbytes of memory.
  Rough estimation (10% accuracy) of disk space for files :
_ WF disk file :     20.791 Mbytes ; DEN or POT disk file :      1.238 Mbytes.
================================================================================
 
--------------------------------------------------------------------------------
------------- Echo of variables that govern the present computation ------------
--------------------------------------------------------------------------------
-
- outvars: echo of selected default values                                      
-   iomode0 =  0 , fftalg0 =512 , wfoptalg0 =  0
-
- outvars: echo of global parameters not present in the input file              
-  max_nthreads =    0
-
 -outvars: echo values of preprocessed input variables --------
            acell      5.9526373186E+00  5.9526373186E+00  3.7794522658E+01 Bohr
              amu      9.59400000E+01  3.20660000E+01
      chksymbreak           0
             ecut      2.50000000E+01 Hartree
-          fftalg         512
           ionmov           2
           istwfk        2    0    0    0    0    0    0    0    0    0
                         0    0    0    0
              ixc          11
           jdtset       11   21   31   41
              kpt      0.00000000E+00  0.00000000E+00  0.00000000E+00
                       1.11111111E-01  1.11111111E-01  0.00000000E+00
                       3.33333333E-01  0.00000000E+00  0.00000000E+00
                       0.00000000E+00  3.33333333E-01  0.00000000E+00
                       2.22222222E-01  2.22222222E-01  0.00000000E+00
                       4.44444444E-01  1.11111111E-01  0.00000000E+00
                       1.11111111E-01  4.44444444E-01  0.00000000E+00
                       3.33333333E-01  3.33333333E-01  0.00000000E+00
                      -4.44444444E-01  2.22222222E-01  0.00000000E+00
                      -2.22222222E-01  1.11111111E-01  0.00000000E+00
                       2.22222222E-01 -4.44444444E-01  0.00000000E+00
                       4.44444444E-01  4.44444444E-01  0.00000000E+00
                      -3.33333333E-01  3.33333333E-01  0.00000000E+00
                      -1.11111111E-01  2.22222222E-01  0.00000000E+00
         kptrlatt        3   -3    0      3    6    0      0    0    1
          kptrlen      3.09308108E+01
P           mkmem          14
            natom           3
            nband          14
           ndtset           4
            ngfft          30      30     180
             nkpt          14
            nstep          10
             nsym           1
            ntime          10
           ntypat           2
              occ      2.000000  2.000000  2.000000  2.000000  2.000000  2.000000
                       2.000000  2.000000  2.000000  2.000000  2.000000  2.000000
                       2.000000  0.000000
        optforces           1
            rprim      5.0000000000E-01 -8.6602540378E-01  0.0000000000E+00
                       5.0000000000E-01  8.6602540378E-01  0.0000000000E+00
                       0.0000000000E+00  0.0000000000E+00  1.0000000000E+00
          spgroup           1
           toldff      5.00000000E-05
           tolmxf      5.00000000E-04
            typat      1  2  2
              wtk        0.03704    0.07407    0.07407    0.07407    0.07407    0.07407
                         0.07407    0.07407    0.07407    0.07407    0.07407    0.07407
                         0.07407    0.07407
           xangst      1.5750000000E+00  9.0932667397E-01  0.0000000000E+00
                       1.5750000000E+00 -9.0932667397E-01 -1.8388847000E+00
                       1.5750000000E+00 -9.0932667397E-01  1.8388847000E+00
            xcart      2.9763186593E+00  1.7183783791E+00  0.0000000000E+00
                       2.9763186593E+00 -1.7183783791E+00 -3.4749884730E+00
                       2.9763186593E+00 -1.7183783791E+00  3.4749884730E+00
             xred      3.3333333333E-01  6.6666666667E-01  0.0000000000E+00
                       6.6666666667E-01  3.3333333333E-01 -9.1944235000E-02
                       6.6666666667E-01  3.3333333333E-01  9.1944235000E-02
            znucl       42.00000   16.00000
 
================================================================================
 
 chkinp: Checking input parameters for consistency, jdtset=  11.
 
 chkinp: Checking input parameters for consistency, jdtset=  21.
 
 chkinp: Checking input parameters for consistency, jdtset=  31.
 
 chkinp: Checking input parameters for consistency, jdtset=  41.
 
================================================================================
== DATASET 11 ==================================================================
-   mpi_nproc: 1, omp_nthreads: -1 (-1 if OMP is not activated)
 

--- !DatasetInfo
iteration_state: {dtset: 11, }
dimensions: {natom: 3, nkpt: 14, mband: 14, nsppol: 1, nspinor: 1, nspden: 1, mpw: 6951, }
cutoff_energies: {ecut:  25.0, pawecutdg:  -1.0, }
electrons: {nelect:   2.60000000E+01, charge:   0.00000000E+00, occopt:   1.00000000E+00, tsmear:   1.00000000E-02, }
meta: {optdriver: 0, ionmov: 2, optcell: 0, iscf: 7, paral_kgb: 0, }
...

 Exchange-correlation functional for the present dataset will be:
  GGA: Perdew-Burke-Ernzerhof functional - ixc=11
 Citation for XC functional:
  J.P.Perdew, K.Burke, M.Ernzerhof, PRL 77, 3865 (1996)
 
 Real(R)+Recip(G) space primitive vectors, cartesian coordinates (Bohr,Bohr^-1):
 R(1)=  2.9763187 -5.1551351  0.0000000  G(1)=  0.1679928 -0.0969907  0.0000000
 R(2)=  2.9763187  5.1551351  0.0000000  G(2)=  0.1679928  0.0969907  0.0000000
 R(3)=  0.0000000  0.0000000 37.7945227  G(3)=  0.0000000  0.0000000  0.0264589
 Unit cell volume ucvol=  1.1597873E+03 bohr^3
 Angles (23,13,12)=  9.00000000E+01  9.00000000E+01  1.20000000E+02 degrees
 
 getcut: wavevector=  0.0000  0.0000  0.0000  ngfft=  30  30 180
         ecut(hartree)=     25.000   => boxcut(ratio)=   2.11597
 
--- Pseudopotential description ------------------------------------------------
- pspini: atom type   1  psp file is ./persudo/Mo.psp8
- pspatm: opening atomic psp file    ./persudo/Mo.psp8
- Mo    ONCVPSP-3.2.3.1  r_core=   1.45541   1.45541   1.35488
- 42.00000  14.00000    170510                znucl, zion, pspdat
    8   11    2    4       600   0.00000      pspcod,pspxc,lmax,lloc,mmax,r2well
    5.99000000000000    3.00000000000000    0.00000000000000   rchrg,fchrg,qchrg
     nproj     2     2     2
     extension_switch     1
  pspatm : epsatm=   15.95693586
         --- l  ekb(1:nproj) -->
             0   13.833287    1.350687
             1    8.015347    1.134034
             2    2.765699    0.969071
 pspatm: atomic psp has been read  and splines computed
 
- pspini: atom type   2  psp file is ./persudo/S.psp8
- pspatm: opening atomic psp file    ./persudo/S.psp8
- S     ONCVPSP-4.0.1  r_core=   1.45687   1.45687   1.45687
- 16.00000   6.00000    220131                znucl, zion, pspdat
    8   11    2    4       600   0.00000      pspcod,pspxc,lmax,lloc,mmax,r2well
    5.99000000000000    6.00000000000000    0.00000000000000   rchrg,fchrg,qchrg
     nproj     2     2     2
     extension_switch     1
  pspatm : epsatm=    9.04179351
         --- l  ekb(1:nproj) -->
             0    6.774234    0.542270
             1    3.022426    0.737017
             2   -5.033160   -1.531047
 pspatm: atomic psp has been read  and splines computed
 
   8.85053595E+02                                ecore*ucvol(ha*bohr**3)
--------------------------------------------------------------------------------
 
_setup2: Arith. and geom. avg. npw (full set) are    6926.037    6926.015
 
================================================================================
 
=== [ionmov= 2] Broyden-Fletcher-Goldfard-Shanno method (forces)            
================================================================================
 
--- Iteration: ( 1/10) Internal Cycle: (1/1)
--------------------------------------------------------------------------------
 
---SELF-CONSISTENT-FIELD CONVERGENCE--------------------------------------------

--- !BeginCycle
iteration_state: {dtset: 11, itime: 1, icycle: 1, }
solver: {iscf: 7, nstep: 10, nline: 4, wfoptalg: 0, }
tolerances: {toldff: 5.00E-05, }
...
 
     iter   Etot(hartree)      deltaE(h)  residm     vres2    diffor    maxfor
 ETOT  1  -91.469952937278    -9.147E+01 8.424E-02 9.513E+03 7.976E-02 7.976E-02
 ETOT  2  -86.122484483789     5.347E+00 2.926E-02 9.248E+04 1.092E+00 1.012E+00
 ETOT  3  -92.223654012982    -6.101E+00 3.774E-02 1.851E+03 8.630E-01 1.500E-01
 ETOT  4  -92.297705555808    -7.405E-02 4.769E-03 8.644E+02 2.853E-02 1.219E-01
 ETOT  5  -92.315452542933    -1.775E-02 1.074E-03 4.552E+02 1.813E-02 1.038E-01
 ETOT  6  -92.320294535405    -4.842E-03 3.301E-04 3.093E+02 1.012E-02 9.383E-02
 ETOT  7  -92.323992490460    -3.698E-03 5.031E-04 1.942E+02 8.668E-03 8.516E-02
 ETOT  8  -92.325888863470    -1.896E-03 1.977E-04 1.232E+02 6.090E-03 7.907E-02
 ETOT  9  -92.326877204881    -9.883E-04 2.709E-04 8.196E+01 4.244E-03 7.483E-02
 ETOT 10  -92.327457495570    -5.803E-04 1.548E-04 5.369E+01 3.868E-03 7.097E-02
 
 Cartesian components of stress tensor (hartree/bohr^3)
  sigma(1 1)=  1.47777792E-04  sigma(3 2)=  7.02190613E-08
  sigma(2 2)=  1.48933121E-04  sigma(3 1)= -5.58245560E-08
  sigma(3 3)=  4.23441207E-04  sigma(2 1)= -3.83809998E-07
 
 
 scprqt:  WARNING -
  nstep=   10 was not enough SCF cycles to converge;
  maximum force difference=  3.868E-03 exceeds toldff=  5.000E-05
 

--- !ResultsGS
iteration_state: {dtset: 11, itime: 1, icycle: 1, }
comment   : Summary of ground state results
lattice_vectors:
- [  2.9763187,  -5.1551351,   0.0000000, ]
- [  2.9763187,   5.1551351,   0.0000000, ]
- [  0.0000000,   0.0000000,  37.7945227, ]
lattice_lengths: [   5.95264,    5.95264,   37.79452, ]
lattice_angles: [ 90.000,  90.000, 120.000, ] # degrees, (23, 13, 12)
lattice_volume:   1.1597873E+03
convergence: {deltae: -5.803E-04, res2:  5.369E+01, residm:  1.548E-04, diffor:  3.868E-03, }
etotal    :  -9.23274575E+01
entropy   :   0.00000000E+00
fermie    :  -6.95730290E-02
cartesian_stress_tensor: # hartree/bohr^3
- [  1.47777792E-04,  -3.83809998E-07,  -5.58245560E-08, ]
- [ -3.83809998E-07,   1.48933121E-04,   7.02190613E-08, ]
- [ -5.58245560E-08,   7.02190613E-08,   4.23441207E-04, ]
pressure_GPa:  -7.0625E+00
xred      :
- [  3.3333E-01,   6.6667E-01,   0.0000E+00, Mo]
- [  6.6667E-01,   3.3333E-01,  -9.1944E-02,  S]
- [  6.6667E-01,   3.3333E-01,   9.1944E-02,  S]
cartesian_forces: # hartree/bohr
- [ -2.98921743E-05,   3.42533416E-05,   7.56929329E-05, ]
- [  1.62766519E-05,  -3.34674861E-05,   7.08941535E-02, ]
- [  1.36155224E-05,  -7.85855507E-07,  -7.09698465E-02, ]
force_length_stats: {min:   8.82963962E-05, max:   7.09698478E-02, mean:   4.73174358E-02, }
...

 Integrated electronic density in atomic spheres:
 ------------------------------------------------
 Atom  Sphere_radius  Integrated_density
    1        2.00000         10.41979836
    2        2.00000          3.81717058
    3        2.00000          3.81704798
 
---OUTPUT-----------------------------------------------------------------------
 
 Cartesian coordinates (xcart) [bohr]
  2.97631865929489E+00  1.71837837912920E+00  0.00000000000000E+00
  2.97631865929489E+00 -1.71837837912920E+00 -3.47498847295358E+00
  2.97631865929489E+00 -1.71837837912920E+00  3.47498847295358E+00
 Reduced coordinates (xred)
  3.33333333333333E-01  6.66666666666667E-01  0.00000000000000E+00
  6.66666666666667E-01  3.33333333333333E-01 -9.19442350000000E-02
  6.66666666666667E-01  3.33333333333333E-01  9.19442350000000E-02
 Cartesian forces (fcart) [Ha/bohr]; max,rms= 7.09698E-02 3.34377E-02 (free atoms)
 -2.98921743384108E-05  3.42533415804876E-05  7.56929329085236E-05
  1.62766519371154E-05 -3.34674860735955E-05  7.08941535283085E-02
  1.36155224012953E-05 -7.85855506892074E-07 -7.09698464612170E-02
 Gradient of E wrt nuclear positions in reduced coordinates (gred)
  2.65549241004819E-04 -8.76119685042037E-05 -2.86077826783993E-03
 -2.20973916289308E-04  1.24084910546738E-04 -2.67941069182503E+00
 -4.45753247155117E-05 -3.64729420425339E-05  2.68227147009287E+00
 Total energy (etotal) [Ha]= -9.23274574955698E+01
 
--- Iteration: ( 2/10) Internal Cycle: (1/1)
--------------------------------------------------------------------------------
 
---SELF-CONSISTENT-FIELD CONVERGENCE--------------------------------------------

--- !BeginCycle
iteration_state: {dtset: 11, itime: 2, icycle: 1, }
solver: {iscf: 7, nstep: 10, nline: 4, wfoptalg: 0, }
tolerances: {toldff: 5.00E-05, }
...
 
     iter   Etot(hartree)      deltaE(h)  residm     vres2    diffor    maxfor
 ETOT  1  -92.336331824137    -9.234E+01 3.118E-04 8.781E+01 6.459E-03 6.552E-02
 ETOT  2  -92.335151207702     1.181E-03 8.496E-05 2.289E+01 4.431E-03 6.894E-02
 ETOT  3  -92.327243537324     7.908E-03 6.002E-05 1.395E+02 3.238E-02 3.708E-02
 ETOT  4  -92.336791609123    -9.548E-03 8.635E-05 1.218E+00 2.483E-02 6.173E-02
 ETOT  5  -92.336814152771    -2.254E-05 2.489E-05 2.875E-01 1.100E-03 6.063E-02
 ETOT  6  -92.336815265122    -1.112E-06 1.053E-05 1.746E-01 1.866E-04 6.044E-02
 ETOT  7  -92.336817527902    -2.263E-06 1.175E-05 8.820E-02 2.097E-04 6.023E-02
 ETOT  8  -92.336817659000    -1.311E-07 5.438E-06 6.270E-02 4.069E-05 6.019E-02
 ETOT  9  -92.336818249665    -5.907E-07 6.042E-06 2.493E-02 1.796E-04 6.001E-02
 ETOT 10  -92.336818315688    -6.602E-08 2.930E-06 1.507E-02 6.484E-05 5.995E-02
 
 Cartesian components of stress tensor (hartree/bohr^3)
  sigma(1 1)=  1.49611239E-04  sigma(3 2)=  4.68556304E-09
  sigma(2 2)=  1.49611182E-04  sigma(3 1)= -7.01758391E-10
  sigma(3 3)=  4.34696890E-04  sigma(2 1)=  1.63116179E-10
 
 
 scprqt:  WARNING -
  nstep=   10 was not enough SCF cycles to converge;
  maximum force difference=  6.484E-05 exceeds toldff=  5.000E-05
 

--- !ResultsGS
iteration_state: {dtset: 11, itime: 2, icycle: 1, }
comment   : Summary of ground state results
lattice_vectors:
- [  2.9763187,  -5.1551351,   0.0000000, ]
- [  2.9763187,   5.1551351,   0.0000000, ]
- [  0.0000000,   0.0000000,  37.7945227, ]
lattice_lengths: [   5.95264,    5.95264,   37.79452, ]
lattice_angles: [ 90.000,  90.000, 120.000, ] # degrees, (23, 13, 12)
lattice_volume:   1.1597873E+03
convergence: {deltae: -6.602E-08, res2:  1.507E-02, residm:  2.930E-06, diffor:  6.484E-05, }
etotal    :  -9.23368183E+01
entropy   :   0.00000000E+00
fermie    :  -5.41267313E-02
cartesian_stress_tensor: # hartree/bohr^3
- [  1.49611239E-04,   1.63116179E-10,  -7.01758391E-10, ]
- [  1.63116179E-10,   1.49611182E-04,   4.68556304E-09, ]
- [ -7.01758391E-10,   4.68556304E-09,   4.34696890E-04, ]
pressure_GPa:  -7.1975E+00
xred      :
- [  3.3332E-01,   6.6666E-01,   2.0027E-06, Mo]
- [  6.6667E-01,   3.3333E-01,  -9.0068E-02,  S]
- [  6.6667E-01,   3.3334E-01,   9.0066E-02,  S]
cartesian_forces: # hartree/bohr
- [  5.38516757E-06,  -6.14104813E-06,  -8.20191153E-05, ]
- [ -2.75301066E-06,   3.89015665E-06,   5.99482251E-02, ]
- [ -2.63215691E-06,   2.25089148E-06,  -5.98662059E-02, ]
force_length_stats: {min:   8.24248008E-05, max:   5.99482252E-02, mean:   3.99656187E-02, }
...

 Integrated electronic density in atomic spheres:
 ------------------------------------------------
 Atom  Sphere_radius  Integrated_density
    1        2.00000         10.40938975
    2        2.00000          3.81960120
    3        2.00000          3.81970067
 
---OUTPUT-----------------------------------------------------------------------
 
 Cartesian coordinates (xcart) [bohr]
  2.97628876712055E+00  1.71841263247078E+00  7.56929329085275E-05
  2.97633493594683E+00 -1.71841184661528E+00 -3.40409431942527E+00
  2.97633227481729E+00 -1.71837916498471E+00  3.40401862649236E+00
 Reduced coordinates (xred)
  3.33324989409848E-01  6.66664967252136E-01  2.00274874732624E-06
  6.66672647060251E-01  3.33332821659265E-01 -9.00684564865269E-02
  6.66669030196567E-01  3.33335544421933E-01  9.00664537377796E-02
 Cartesian forces (fcart) [Ha/bohr]; max,rms= 5.99482E-02 2.82406E-02 (free atoms)
  5.38516757493981E-06 -6.14104812567866E-06 -8.20191153315925E-05
 -2.75301066222857E-06  3.89015664515831E-06  5.99482250568852E-02
 -2.63215691271124E-06  2.25089148052034E-06 -5.98662059415537E-02
 Gradient of E wrt nuclear positions in reduced coordinates (gred)
 -4.76859077097975E-05  1.56299582363512E-05  3.09987331276544E-03
  2.82481202146262E-05 -1.18604462081689E-05 -2.26571455020212E+00
  1.94377874951713E-05 -3.76951202818233E-06  2.26261467688935E+00
 Total energy (etotal) [Ha]= -9.23368183156882E+01
 
 Difference of energy with previous step (new-old):
           Absolute (Ha)=-9.36082E-03
           Relative     =-1.01382E-04
 
--- Iteration: ( 3/10) Internal Cycle: (1/1)
--------------------------------------------------------------------------------
 
---SELF-CONSISTENT-FIELD CONVERGENCE--------------------------------------------

--- !BeginCycle
iteration_state: {dtset: 11, itime: 3, icycle: 1, }
solver: {iscf: 7, nstep: 10, nline: 4, wfoptalg: 0, }
tolerances: {toldff: 5.00E-05, }
...
 
     iter   Etot(hartree)      deltaE(h)  residm     vres2    diffor    maxfor
 ETOT  1  -91.954287668647    -9.195E+01 1.149E-01 9.574E+03 2.151E-01 2.749E-01
 ETOT  2  -91.868645140788     8.564E-02 6.386E-04 4.582E+03 4.178E-01 1.429E-01
 ETOT  3  -92.320513248886    -4.519E-01 5.465E-03 1.099E+03 1.954E-01 5.252E-02
 ETOT  4  -92.363839203505    -4.333E-02 1.357E-03 1.857E+02 3.800E-02 1.452E-02
 ETOT  5  -92.364228296381    -3.891E-04 6.021E-04 1.700E+02 1.080E-03 1.558E-02
 ETOT  6  -92.364382032886    -1.537E-04 2.447E-04 1.558E+02 1.257E-03 1.432E-02
 ETOT  7  -92.364441195778    -5.916E-05 1.381E-04 1.472E+02 3.211E-04 1.400E-02
 ETOT  8  -92.364558335801    -1.171E-04 5.869E-05 1.291E+02 1.002E-03 1.300E-02
 ETOT  9  -92.364686429632    -1.281E-04 3.043E-05 1.053E+02 1.314E-03 1.169E-02
 ETOT 10  -92.364728049737    -4.162E-05 2.543E-05 9.564E+01 4.538E-04 1.123E-02
 
 Cartesian components of stress tensor (hartree/bohr^3)
  sigma(1 1)=  6.22295761E-05  sigma(3 2)=  1.83331590E-09
  sigma(2 2)=  6.22314393E-05  sigma(3 1)= -4.28642313E-09
  sigma(3 3)=  7.90192573E-05  sigma(2 1)= -1.10539539E-08
 
 
 scprqt:  WARNING -
  nstep=   10 was not enough SCF cycles to converge;
  maximum force difference=  4.538E-04 exceeds toldff=  5.000E-05
 

--- !ResultsGS
iteration_state: {dtset: 11, itime: 3, icycle: 1, }
comment   : Summary of ground state results
lattice_vectors:
- [  2.9763187,  -5.1551351,   0.0000000, ]
- [  2.9763187,   5.1551351,   0.0000000, ]
- [  0.0000000,   0.0000000,  37.7945227, ]
lattice_lengths: [   5.95264,    5.95264,   37.79452, ]
lattice_angles: [ 90.000,  90.000, 120.000, ] # degrees, (23, 13, 12)
lattice_volume:   1.1597873E+03
convergence: {deltae: -4.162E-05, res2:  9.564E+01, residm:  2.543E-05, diffor:  4.538E-04, }
etotal    :  -9.23647280E+01
entropy   :   0.00000000E+00
fermie    :  -8.51010812E-02
cartesian_stress_tensor: # hartree/bohr^3
- [  6.22295761E-05,  -1.10539539E-08,  -4.28642313E-09, ]
- [ -1.10539539E-08,   6.22314393E-05,   1.83331590E-09, ]
- [ -4.28642313E-09,   1.83331590E-09,   7.90192573E-05, ]
pressure_GPa:  -1.9955E+00
xred      :
- [  3.3333E-01,   6.6667E-01,  -1.1959E-05, Mo]
- [  6.6667E-01,   3.3333E-01,  -7.9863E-02,  S]
- [  6.6666E-01,   3.3333E-01,   7.9875E-02,  S]
cartesian_forces: # hartree/bohr
- [ -3.03174611E-06,   8.95464308E-07,   1.97531598E-04, ]
- [  2.37348840E-07,  -2.49686519E-07,   1.10352471E-02, ]
- [  2.79439726E-06,  -6.45777788E-07,  -1.12327787E-02, ]
force_length_stats: {min:   1.97556892E-04, max:   1.12327791E-02, mean:   7.48852772E-03, }
...

 Integrated electronic density in atomic spheres:
 ------------------------------------------------
 Atom  Sphere_radius  Integrated_density
    1        2.00000         10.51028195
    2        2.00000          3.92504934
    3        2.00000          3.92478858
 
---OUTPUT-----------------------------------------------------------------------
 
 Cartesian coordinates (xcart) [bohr]
  2.97632340974419E+00  1.71837312731417E+00 -4.51989248117639E-04
  2.97631722605658E+00 -1.71838682309318E+00 -3.01838999341542E+00
  2.97631534208390E+00 -1.71836468335019E+00  3.01884198266354E+00
 Reduced coordinates (xred)
  3.33334640751493E-01  6.66666955330731E-01 -1.19591204315792E-05
  6.66667244878706E-01  3.33332273573961E-01 -7.98631595575780E-02
  6.66664781036468E-01  3.33334104428642E-01  7.98751186780096E-02
 Cartesian forces (fcart) [Ha/bohr]; max,rms= 1.12328E-02 5.24924E-03 (free atoms)
 -3.03174610533199E-06  8.95464307526603E-07  1.97531598343488E-04
  2.37348840344150E-07 -2.49686519242232E-07  1.10352471447654E-02
  2.79439726498784E-06 -6.45777788284371E-07 -1.12327787431089E-02
 Gradient of E wrt nuclear positions in reduced coordinates (gred)
  1.36396820195511E-05  4.40720298753736E-06 -7.46561246920720E-03
 -1.99359353095593E-06  5.80741966399338E-07 -4.17071898246299E-01
 -1.16460884885951E-05 -4.98794495393670E-06  4.24537510715506E-01
 Total energy (etotal) [Ha]= -9.23647280497370E+01
 
 Difference of energy with previous step (new-old):
           Absolute (Ha)=-2.79097E-02
           Relative     =-3.02214E-04
 
--- Iteration: ( 4/10) Internal Cycle: (1/1)
--------------------------------------------------------------------------------
 
---SELF-CONSISTENT-FIELD CONVERGENCE--------------------------------------------

--- !BeginCycle
iteration_state: {dtset: 11, itime: 4, icycle: 1, }
solver: {iscf: 7, nstep: 10, nline: 4, wfoptalg: 0, }
tolerances: {toldff: 5.00E-05, }
...
 
     iter   Etot(hartree)      deltaE(h)  residm     vres2    diffor    maxfor
 ETOT  1  -92.357837632200    -9.236E+01 6.817E-04 2.664E+02 2.336E-02 3.459E-02
 ETOT  2  -92.360638760679    -2.801E-03 1.287E-04 3.391E+01 5.900E-02 2.452E-02
 ETOT  3  -92.352897323859     7.741E-03 2.200E-04 1.627E+02 3.866E-02 1.425E-02
 ETOT  4  -92.364755650507    -1.186E-02 1.271E-04 3.384E+00 2.267E-02 8.594E-03
 ETOT  5  -92.364775440047    -1.979E-05 1.111E-04 3.082E+00 2.126E-04 8.381E-03
 ETOT  6  -92.364780033481    -4.593E-06 4.749E-05 2.841E+00 2.739E-04 8.651E-03
 ETOT  7  -92.364780400366    -3.669E-07 5.055E-05 2.764E+00 1.750E-05 8.634E-03
 ETOT  8  -92.364782662525    -2.262E-06 2.599E-05 2.347E+00 1.296E-04 8.762E-03
 ETOT  9  -92.364784104845    -1.442E-06 3.134E-05 2.007E+00 1.008E-04 8.861E-03
 ETOT 10  -92.364784928109    -8.233E-07 1.599E-05 1.859E+00 6.095E-05 8.921E-03
 
 Cartesian components of stress tensor (hartree/bohr^3)
  sigma(1 1)=  3.47265195E-05  sigma(3 2)=  4.83717912E-09
  sigma(2 2)=  3.47207060E-05  sigma(3 1)=  4.37756484E-10
  sigma(3 3)=  2.86623418E-05  sigma(2 1)= -2.30470558E-09
 
 
 scprqt:  WARNING -
  nstep=   10 was not enough SCF cycles to converge;
  maximum force difference=  6.095E-05 exceeds toldff=  5.000E-05
 

--- !ResultsGS
iteration_state: {dtset: 11, itime: 4, icycle: 1, }
comment   : Summary of ground state results
lattice_vectors:
- [  2.9763187,  -5.1551351,   0.0000000, ]
- [  2.9763187,   5.1551351,   0.0000000, ]
- [  0.0000000,   0.0000000,  37.7945227, ]
lattice_lengths: [   5.95264,    5.95264,   37.79452, ]
lattice_angles: [ 90.000,  90.000, 120.000, ] # degrees, (23, 13, 12)
lattice_volume:   1.1597873E+03
convergence: {deltae: -8.233E-07, res2:  1.859E+00, residm:  1.599E-05, diffor:  6.095E-05, }
etotal    :  -9.23647849E+01
entropy   :   0.00000000E+00
fermie    :  -6.54856266E-02
cartesian_stress_tensor: # hartree/bohr^3
- [  3.47265195E-05,  -2.30470558E-09,   4.37756484E-10, ]
- [ -2.30470558E-09,   3.47207060E-05,   4.83717912E-09, ]
- [  4.37756484E-10,   4.83717912E-09,   2.86623418E-05, ]
pressure_GPa:  -9.6216E-01
xred      :
- [  3.3334E-01,   6.6667E-01,  -8.2316E-06, Mo]
- [  6.6667E-01,   3.3333E-01,  -7.7537E-02,  S]
- [  6.6666E-01,   3.3333E-01,   7.7545E-02,  S]
cartesian_forces: # hartree/bohr
- [ -2.69719671E-06,   4.00216624E-06,   1.63576265E-04, ]
- [  1.53835402E-06,  -1.04918746E-06,  -8.92136362E-03, ]
- [  1.15884269E-06,  -2.95297878E-06,   8.75778735E-03, ]
force_length_stats: {min:   1.63647446E-04, max:   8.92136381E-03, mean:   5.94759973E-03, }
...

 Integrated electronic density in atomic spheres:
 ------------------------------------------------
 Atom  Sphere_radius  Integrated_density
    1        2.00000         10.53072962
    2        2.00000          3.94825275
    3        2.00000          3.94805524
 
---OUTPUT-----------------------------------------------------------------------
 
 Cartesian coordinates (xcart) [bohr]
  2.97632636610601E+00  1.71836660935522E+00 -3.11107601948024E-04
  2.97631410253372E+00 -1.71838230408334E+00 -2.93047255708426E+00
  2.97631550924494E+00 -1.71836268440107E+00  2.93078366468621E+00
 Reduced coordinates (xred)
  3.33335769580079E-01  6.66666819796933E-01 -8.23155261849922E-06
  6.66666281847684E-01  3.33332187146503E-01 -7.75369643803723E-02
  6.66664615238904E-01  3.33334326389897E-01  7.75451959329908E-02
 Cartesian forces (fcart) [Ha/bohr]; max,rms= 8.92136E-03 4.16755E-03 (free atoms)
 -2.69719671303097E-06  4.00216624212714E-06  1.63576265070190E-04
  1.53835402447898E-06 -1.04918746385329E-06 -8.92136361861029E-03
  1.15884268855200E-06 -2.95297877827385E-06  8.75778735354010E-03
 Gradient of E wrt nuclear positions in reduced coordinates (gred)
  2.86594247252391E-05 -1.26039909156732E-05 -6.18228685645936E-03
 -9.98733494827488E-06  8.30071372958542E-07  3.37178679421262E-01
 -1.86720897769642E-05  1.17739195427147E-05 -3.30996392564803E-01
 Total energy (etotal) [Ha]= -9.23647849281093E+01
 
 Difference of energy with previous step (new-old):
           Absolute (Ha)=-5.68784E-05
           Relative     =-6.15802E-07
 
--- Iteration: ( 5/10) Internal Cycle: (1/1)
--------------------------------------------------------------------------------
 
---SELF-CONSISTENT-FIELD CONVERGENCE--------------------------------------------

--- !BeginCycle
iteration_state: {dtset: 11, itime: 5, icycle: 1, }
solver: {iscf: 7, nstep: 10, nline: 4, wfoptalg: 0, }
tolerances: {toldff: 5.00E-05, }
...
 
     iter   Etot(hartree)      deltaE(h)  residm     vres2    diffor    maxfor
 ETOT  1  -92.358843353420    -9.236E+01 4.617E-05 2.074E+02 2.708E-02 3.600E-02
 ETOT  2  -92.356888657436     1.955E-03 2.969E-05 7.290E+01 5.327E-02 1.736E-02
 ETOT  3  -92.349414221641     7.474E-03 2.081E-04 2.144E+02 4.635E-02 2.908E-02
 ETOT  4  -92.365146435039    -1.573E-02 1.061E-04 4.892E+00 2.533E-02 3.776E-03
 ETOT  5  -92.365186179206    -3.974E-05 2.676E-06 3.851E+00 1.634E-04 3.612E-03
 ETOT  6  -92.365206446651    -2.027E-05 3.407E-07 2.907E+00 7.475E-04 2.865E-03
 ETOT  7  -92.365206982017    -5.354E-07 1.214E-06 2.727E+00 1.066E-05 2.875E-03
 ETOT  8  -92.365209591770    -2.610E-06 2.045E-07 2.429E+00 1.154E-04 2.759E-03
 ETOT  9  -92.365217042256    -7.450E-06 6.298E-07 1.509E+00 3.723E-04 2.387E-03
 ETOT 10  -92.365217883975    -8.417E-07 9.949E-08 1.415E+00 7.143E-05 2.316E-03
 
 Cartesian components of stress tensor (hartree/bohr^3)
  sigma(1 1)=  4.86837221E-05  sigma(3 2)=  4.84659797E-09
  sigma(2 2)=  4.86764109E-05  sigma(3 1)=  3.74041175E-10
  sigma(3 3)=  8.09607459E-05  sigma(2 1)=  1.13849048E-09
 
 
 scprqt:  WARNING -
  nstep=   10 was not enough SCF cycles to converge;
  maximum force difference=  7.143E-05 exceeds toldff=  5.000E-05
 

--- !ResultsGS
iteration_state: {dtset: 11, itime: 5, icycle: 1, }
comment   : Summary of ground state results
lattice_vectors:
- [  2.9763187,  -5.1551351,   0.0000000, ]
- [  2.9763187,   5.1551351,   0.0000000, ]
- [  0.0000000,   0.0000000,  37.7945227, ]
lattice_lengths: [   5.95264,    5.95264,   37.79452, ]
lattice_angles: [ 90.000,  90.000, 120.000, ] # degrees, (23, 13, 12)
lattice_volume:   1.1597873E+03
convergence: {deltae: -8.417E-07, res2:  1.415E+00, residm:  9.949E-08, diffor:  7.143E-05, }
etotal    :  -9.23652179E+01
entropy   :   0.00000000E+00
fermie    :  -5.74971354E-02
cartesian_stress_tensor: # hartree/bohr^3
- [  4.86837221E-05,   1.13849048E-09,   3.74041175E-10, ]
- [  1.13849048E-09,   4.86764109E-05,   4.84659797E-09, ]
- [  3.74041175E-10,   4.84659797E-09,   8.09607459E-05, ]
pressure_GPa:  -1.7488E+00
xred      :
- [  3.3333E-01,   6.6667E-01,  -5.1555E-06, Mo]
- [  6.6667E-01,   3.3333E-01,  -7.8569E-02,  S]
- [  6.6667E-01,   3.3333E-01,   7.8574E-02,  S]
cartesian_forces: # hartree/bohr
- [ -4.08824942E-07,   1.56392469E-06,   9.40601159E-05, ]
- [  2.67311886E-07,   1.50494572E-07,  -2.31563239E-03, ]
- [  1.41513056E-07,  -1.71441926E-06,   2.22157228E-03, ]
force_length_stats: {min:   9.40740050E-05, max:   2.31563241E-03, mean:   1.54375979E-03, }
...

 Integrated electronic density in atomic spheres:
 ------------------------------------------------
 Atom  Sphere_radius  Integrated_density
    1        2.00000         10.51485228
    2        2.00000          3.93351174
    3        2.00000          3.93340111
 
---OUTPUT-----------------------------------------------------------------------
 
 Cartesian coordinates (xcart) [bohr]
  2.97632221333154E+00  1.71837212018287E+00 -1.94851523089060E-04
  2.97631644697293E+00 -1.71838499841293E+00 -2.96947016633282E+00
  2.97631731758020E+00 -1.71836550089914E+00  2.96966501785591E+00
 Reduced coordinates (xred)
  3.33334537445162E-01  6.66666656659725E-01 -5.15554925388894E-06
  6.66666937021334E-01  3.33332319670501E-01 -7.85687966805642E-02
  6.66665192200172E-01  3.33334357003108E-01  7.85739522298182E-02
 Cartesian forces (fcart) [Ha/bohr]; max,rms= 2.31563E-03 1.07012E-03 (free atoms)
 -4.08824941932480E-07  1.56392468747739E-06  9.40601159318210E-05
  2.67311886240380E-07  1.50494571990316E-07 -2.31563239402558E-03
  1.41513055692100E-07 -1.71441925946770E-06  2.22157227809376E-03
 Gradient of E wrt nuclear positions in reduced coordinates (gred)
  9.27903641170141E-06 -6.84544980558383E-06 -3.55495718277231E-03
 -1.97854988151674E-08 -1.57142521092194E-06  8.75182209829336E-02
 -9.25925091288624E-06  8.41687501650577E-06 -8.39632638001613E-02
 Total energy (etotal) [Ha]= -9.23652178839747E+01
 
 Difference of energy with previous step (new-old):
           Absolute (Ha)=-4.32956E-04
           Relative     =-4.68745E-06
 
--- Iteration: ( 6/10) Internal Cycle: (1/1)
--------------------------------------------------------------------------------
 
---SELF-CONSISTENT-FIELD CONVERGENCE--------------------------------------------

--- !BeginCycle
iteration_state: {dtset: 11, itime: 6, icycle: 1, }
solver: {iscf: 7, nstep: 10, nline: 4, wfoptalg: 0, }
tolerances: {toldff: 5.00E-05, }
...
 
     iter   Etot(hartree)      deltaE(h)  residm     vres2    diffor    maxfor
 ETOT  1  -92.364960348171    -9.236E+01 5.153E-07 2.411E+01 4.992E-03 7.307E-03
 ETOT  2  -92.364941463485     1.888E-05 3.697E-07 3.125E+00 1.217E-02 4.884E-03
 ETOT  3  -92.364276002014     6.655E-04 1.002E-05 1.169E+01 1.082E-02 5.950E-03
 ETOT  4  -92.365230608561    -9.546E-04 6.788E-06 1.954E-01 6.569E-03 6.921E-04
 ETOT  5  -92.365232139914    -1.531E-06 2.384E-07 4.839E-02 4.476E-05 6.473E-04
 ETOT  6  -92.365232279882    -1.400E-07 1.243E-08 3.432E-02 3.093E-04 9.474E-04
 ETOT  7  -92.365232407428    -1.275E-07 6.165E-09 3.400E-02 5.072E-05 8.967E-04
 ETOT  8  -92.365232402493     4.936E-09 4.699E-09 3.513E-02 8.202E-06 9.046E-04
 ETOT  9  -92.365232522334    -1.198E-07 3.749E-09 2.747E-02 3.587E-05 8.687E-04
 
 At SCF step    9, forces are converged : 
  for the second time, max diff in force=  3.587E-05 < toldff=  5.000E-05
 
 Cartesian components of stress tensor (hartree/bohr^3)
  sigma(1 1)=  5.25278806E-05  sigma(3 2)=  4.36948537E-09
  sigma(2 2)=  5.25292291E-05  sigma(3 1)=  2.16368592E-10
  sigma(3 3)=  8.80193880E-05  sigma(2 1)= -2.10866172E-09
 

--- !ResultsGS
iteration_state: {dtset: 11, itime: 6, icycle: 1, }
comment   : Summary of ground state results
lattice_vectors:
- [  2.9763187,  -5.1551351,   0.0000000, ]
- [  2.9763187,   5.1551351,   0.0000000, ]
- [  0.0000000,   0.0000000,  37.7945227, ]
lattice_lengths: [   5.95264,    5.95264,   37.79452, ]
lattice_angles: [ 90.000,  90.000, 120.000, ] # degrees, (23, 13, 12)
lattice_volume:   1.1597873E+03
convergence: {deltae: -1.198E-07, res2:  2.747E-02, residm:  3.749E-09, diffor:  3.587E-05, }
etotal    :  -9.23652325E+01
entropy   :   0.00000000E+00
fermie    :  -5.99292555E-02
cartesian_stress_tensor: # hartree/bohr^3
- [  5.25278806E-05,  -2.10866172E-09,   2.16368592E-10, ]
- [ -2.10866172E-09,   5.25292291E-05,   4.36948537E-09, ]
- [  2.16368592E-10,   4.36948537E-09,   8.80193880E-05, ]
pressure_GPa:  -1.8935E+00
xred      :
- [  3.3333E-01,   6.6667E-01,  -2.2398E-06, Mo]
- [  6.6667E-01,   3.3333E-01,  -7.8926E-02,  S]
- [  6.6667E-01,   3.3333E-01,   7.8928E-02,  S]
cartesian_forces: # hartree/bohr
- [ -5.76560987E-07,   7.86130505E-07,   5.32635330E-05, ]
- [  2.39797130E-07,   1.55893117E-07,   8.15426809E-04, ]
- [  3.36763857E-07,  -9.42023622E-07,  -8.68690342E-04, ]
force_length_stats: {min:   5.32724541E-05, max:   8.68690918E-04, mean:   5.79130077E-04, }
...

 Integrated electronic density in atomic spheres:
 ------------------------------------------------
 Atom  Sphere_radius  Integrated_density
    1        2.00000         10.51222498
    2        2.00000          3.92993744
    3        2.00000          3.92987367
 
---OUTPUT-----------------------------------------------------------------------
 
 Cartesian coordinates (xcart) [bohr]
  2.97632116110024E+00  1.71837474460780E+00 -8.46508459898676E-05
  2.97631708471476E+00 -1.71838536359458E+00 -2.98296934153557E+00
  2.97631773206966E+00 -1.71836776014242E+00  2.98305399238156E+00
 Reduced coordinates (xred)
  3.33334106133189E-01  6.66666734437206E-01 -2.23976491928501E-06
  6.66667079576560E-01  3.33332391387303E-01 -7.89259694731672E-02
  6.66665480956918E-01  3.33334207508824E-01  7.89282092380865E-02
 Cartesian forces (fcart) [Ha/bohr]; max,rms= 8.68690E-04 3.97546E-04 (free atoms)
 -5.76560987246974E-07  7.86130504522079E-07  5.32635329768649E-05
  2.39797130215176E-07  1.55893117386303E-07  8.15426809313401E-04
  3.36763857031798E-07 -9.42023621908382E-07 -8.68690342290265E-04
 Gradient of E wrt nuclear positions in reduced coordinates (gred)
  5.76863821099867E-06 -2.33657976186936E-06 -2.01306980392396E-03
  8.99374140102254E-08 -1.51736276021982E-06 -3.08186670203018E-02
 -5.85857562500889E-06  3.85394252208918E-06  3.28317368242258E-02
 Total energy (etotal) [Ha]= -9.23652325223344E+01
 
 Difference of energy with previous step (new-old):
           Absolute (Ha)=-1.46384E-05
           Relative     =-1.58483E-07
 
--- Iteration: ( 7/10) Internal Cycle: (1/1)
--------------------------------------------------------------------------------
 
---SELF-CONSISTENT-FIELD CONVERGENCE--------------------------------------------

--- !BeginCycle
iteration_state: {dtset: 11, itime: 7, icycle: 1, }
solver: {iscf: 7, nstep: 10, nline: 4, wfoptalg: 0, }
tolerances: {toldff: 5.00E-05, }
...
 
     iter   Etot(hartree)      deltaE(h)  residm     vres2    diffor    maxfor
 ETOT  1  -92.365206068490    -9.237E+01 5.048E-08 6.372E+00 2.020E-03 2.836E-03
 ETOT  2  -92.365215694527    -9.626E-06 3.153E-08 1.463E-01 3.595E-03 7.594E-04
 ETOT  3  -92.365150718675     6.498E-05 8.419E-07 1.329E+00 3.096E-03 2.340E-03
 ETOT  4  -92.365236258984    -8.554E-05 5.888E-07 5.682E-02 2.049E-03 2.970E-04
 ETOT  5  -92.365236397976    -1.390E-07 1.599E-08 4.095E-02 1.337E-05 3.104E-04
 ETOT  6  -92.365236473893    -7.592E-08 1.571E-09 3.894E-02 9.478E-06 3.199E-04
 
 At SCF step    6, forces are converged : 
  for the second time, max diff in force=  9.478E-06 < toldff=  5.000E-05
 
 Cartesian components of stress tensor (hartree/bohr^3)
  sigma(1 1)=  5.20739172E-05  sigma(3 2)=  4.12860993E-09
  sigma(2 2)=  5.20716840E-05  sigma(3 1)=  1.72257042E-10
  sigma(3 3)=  8.33633361E-05  sigma(2 1)= -4.10942508E-12
 

--- !ResultsGS
iteration_state: {dtset: 11, itime: 7, icycle: 1, }
comment   : Summary of ground state results
lattice_vectors:
- [  2.9763187,  -5.1551351,   0.0000000, ]
- [  2.9763187,   5.1551351,   0.0000000, ]
- [  0.0000000,   0.0000000,  37.7945227, ]
lattice_lengths: [   5.95264,    5.95264,   37.79452, ]
lattice_angles: [ 90.000,  90.000, 120.000, ] # degrees, (23, 13, 12)
lattice_volume:   1.1597873E+03
convergence: {deltae: -7.592E-08, res2:  3.894E-02, residm:  1.571E-09, diffor:  9.478E-06, }
etotal    :  -9.23652365E+01
entropy   :   0.00000000E+00
fermie    :  -6.07383431E-02
cartesian_stress_tensor: # hartree/bohr^3
- [  5.20739172E-05,  -4.10942508E-12,   1.72257042E-10, ]
- [ -4.10942508E-12,   5.20716840E-05,   4.12860993E-09, ]
- [  1.72257042E-10,   4.12860993E-09,   8.33633361E-05, ]
pressure_GPa:  -1.8389E+00
xred      :
- [  3.3333E-01,   6.6667E-01,  -1.3270E-06, Mo]
- [  6.6667E-01,   3.3333E-01,  -7.8830E-02,  S]
- [  6.6667E-01,   3.3333E-01,   7.8831E-02,  S]
cartesian_forces: # hartree/bohr
- [ -6.78017955E-07,   9.93500127E-07,   1.57701997E-05, ]
- [  3.71936540E-07,   8.58860729E-08,   3.04084805E-04, ]
- [  3.06081415E-07,  -1.07938620E-06,  -3.19855005E-04, ]
force_length_stats: {min:   1.58160029E-05, max:   3.19856972E-04, mean:   2.13252673E-04, }
...

 Integrated electronic density in atomic spheres:
 ------------------------------------------------
 Atom  Sphere_radius  Integrated_density
    1        2.00000         10.51306808
    2        2.00000          3.93737358
    3        2.00000          3.93735048
 
---OUTPUT-----------------------------------------------------------------------
 
 Cartesian coordinates (xcart) [bohr]
  2.97632091488595E+00  1.71837503089553E+00 -5.01543694161288E-05
  2.97631715925667E+00 -1.71838510998269E+00 -2.97934834379801E+00
  2.97631790374204E+00 -1.71836830004205E+00  2.97939849816743E+00
 Reduced coordinates (xred)
  3.33334037003732E-01  6.66666720842226E-01 -1.32702746031094E-06
  6.66667067501074E-01  3.33332428507791E-01 -7.88301619994136E-02
  6.66665562161861E-01  3.33334183983316E-01  7.88314890268739E-02
 Cartesian forces (fcart) [Ha/bohr]; max,rms= 3.19855E-04 1.47206E-04 (free atoms)
 -6.78017954688355E-07  9.93500127168231E-07  1.57701996522530E-05
  3.71936540080132E-07  8.58860729113231E-08  3.04084804992321E-04
  3.06081414608223E-07 -1.07938620007955E-06 -3.19855004644574E-04
 Gradient of E wrt nuclear positions in reduced coordinates (gred)
  7.13962490443991E-06 -3.10362992468810E-06 -5.96027168073730E-04
 -6.64247352036682E-07 -1.54975597659147E-06 -1.14927400521485E-02
 -6.47537755240323E-06  4.65338590127957E-06  1.20887672202222E-02
 Total energy (etotal) [Ha]= -9.23652364738927E+01
 
 Difference of energy with previous step (new-old):
           Absolute (Ha)=-3.95156E-06
           Relative     =-4.27819E-08
 
 At Broyd/MD step   7, gradients are converged : 
  max grad (force/stress) = 3.1986E-04 < tolmxf= 5.0000E-04 ha/bohr (free atoms)
 
================================================================================
 
 ----iterations are completed or convergence reached----
 
 Mean square residual over all n,k,spin=   20.962E-11; max=  15.711E-10
 reduced coordinates (array xred) for    3 atoms
       0.333334037004      0.666666720842     -0.000001327027
       0.666667067501      0.333332428508     -0.078830161999
       0.666665562162      0.333334183983      0.078831489027
 rms dE/dt=  5.5635E-03; max dE/dt=  1.2075E-02; dE/dt below (all hartree)
    1       0.000008170207     -0.000003681961     -0.000609714069
    2       0.000000366334     -0.000002128087     -0.011506426953
    3      -0.000005444796      0.000004075055      0.012075080319
 
 cartesian coordinates (angstrom) at end:
    1      1.57500119360738     0.90932490216005    -0.00002654054921
    2      1.57499920621396    -0.90933023578326    -1.57660323998827
    3      1.57499960017865    -0.90932134034580     1.57662978053748
 
 cartesian forces (hartree/bohr) at end:
    1     -0.00000067801795     0.00000099350013     0.00001577019965
    2      0.00000037193654     0.00000008588607     0.00030408480499
    3      0.00000030608141    -0.00000107938620    -0.00031985500464
 frms,max,avg= 1.4720596E-04 3.1985500E-04  -7.597E-08  1.560E-07  3.621E-07 h/b
 
 cartesian forces (eV/Angstrom) at end:
    1     -0.00003486508211     0.00005108782632     0.00081093620307
    2      0.00001912574427     0.00000441643907     0.01563666805811
    3      0.00001573933784    -0.00005550426539    -0.01644760426118
 frms,max,avg= 7.5696340E-03 1.6447604E-02  -3.907E-06  8.024E-06  1.862E-05 e/A
 length scales=  5.952637318590  5.952637318590 37.794522657713 bohr
              =  3.150000000000  3.150000000000 20.000000000000 angstroms
 prteigrs : about to open file mos2_k_drafto_DS11_EIG
 Fermi (or HOMO) energy (hartree) =  -0.06074   Average Vxc (hartree)=  -0.14488
 Eigenvalues (hartree) for nkpt=  14  k points:
 kpt#   1, nband= 14, wtk=  0.03704, kpt=  0.0000  0.0000  0.0000 (reduced coord)
  -2.29804   -1.34717   -1.33786   -1.33786   -0.58132   -0.53431   -0.26946   -0.15383
  -0.15383   -0.13027   -0.11289   -0.11289   -0.06578    0.04338
 prteigrs : prtvol=0 or 1, do not print more k-points.
 

--- !EnergyTerms
iteration_state     : {dtset: 11, itime: 7, icycle: 1, }
comment             : Components of total free energy in Hartree
kinetic             :  2.99606989427760E+01
hartree             :  2.83864338046428E+02
xc                  : -1.66152176753028E+01
Ewald energy        :  2.07616792236418E+02
psp_core            :  7.63117176066322E-01
local_psp           : -6.09579115057687E+02
non_local_psp       :  1.16241498574080E+01
total_energy        : -9.23652364738927E+01
total_energy_eV     : -2.51338590501077E+03
band_energy         : -1.70878226586494E+01
...

 rms coord change=  6.1817E-03   atom, delta coord (reduced):
     1        0.000000703670      0.000000054176     -0.000001327027
     2        0.000000400834     -0.000000904826      0.013114073001
     3       -0.000001104505      0.000000850650     -0.013112745973
 
 Cartesian components of stress tensor (hartree/bohr^3)
  sigma(1 1)=  5.20739172E-05  sigma(3 2)=  4.12860993E-09
  sigma(2 2)=  5.20716840E-05  sigma(3 1)=  1.72257042E-10
  sigma(3 3)=  8.33633361E-05  sigma(2 1)= -4.10942508E-12
 
-Cartesian components of stress tensor (GPa)         [Pressure= -1.8389E+00 GPa]
- sigma(1 1)=  1.53206728E+00  sigma(3 2)=  1.21467877E-04
- sigma(2 2)=  1.53200158E+00  sigma(3 1)=  5.06797629E-06
- sigma(3 3)=  2.45263361E+00  sigma(2 1)= -1.20903440E-07
 
================================================================================
== DATASET 21 ==================================================================
-   mpi_nproc: 1, omp_nthreads: -1 (-1 if OMP is not activated)
 

--- !DatasetInfo
iteration_state: {dtset: 21, }
dimensions: {natom: 3, nkpt: 14, mband: 14, nsppol: 1, nspinor: 1, nspden: 1, mpw: 6951, }
cutoff_energies: {ecut:  25.0, pawecutdg:  -1.0, }
electrons: {nelect:   2.60000000E+01, charge:   0.00000000E+00, occopt:   1.00000000E+00, tsmear:   1.00000000E-02, }
meta: {optdriver: 0, ionmov: 2, optcell: 0, iscf: 7, paral_kgb: 0, }
...

 Exchange-correlation functional for the present dataset will be:
  GGA: Perdew-Burke-Ernzerhof functional - ixc=11
 Citation for XC functional:
  J.P.Perdew, K.Burke, M.Ernzerhof, PRL 77, 3865 (1996)
 
 Real(R)+Recip(G) space primitive vectors, cartesian coordinates (Bohr,Bohr^-1):
 R(1)=  2.9763187 -5.1551351  0.0000000  G(1)=  0.1679928 -0.0969907  0.0000000
 R(2)=  2.9763187  5.1551351  0.0000000  G(2)=  0.1679928  0.0969907  0.0000000
 R(3)=  0.0000000  0.0000000 37.7945227  G(3)=  0.0000000  0.0000000  0.0264589
 Unit cell volume ucvol=  1.1597873E+03 bohr^3
 Angles (23,13,12)=  9.00000000E+01  9.00000000E+01  1.20000000E+02 degrees
 
 getcut: wavevector=  0.0000  0.0000  0.0000  ngfft=  30  30 180
         ecut(hartree)=     25.000   => boxcut(ratio)=   2.11597
--------------------------------------------------------------------------------
 
_setup2: Arith. and geom. avg. npw (full set) are    6926.037    6926.015
 
================================================================================
 
=== [ionmov= 2] Broyden-Fletcher-Goldfard-Shanno method (forces)            
================================================================================
 
--- Iteration: ( 1/10) Internal Cycle: (1/1)
--------------------------------------------------------------------------------
 
---SELF-CONSISTENT-FIELD CONVERGENCE--------------------------------------------

--- !BeginCycle
iteration_state: {dtset: 21, itime: 1, icycle: 1, }
solver: {iscf: 7, nstep: 10, nline: 4, wfoptalg: 0, }
tolerances: {toldff: 5.00E-05, }
...
 
     iter   Etot(hartree)      deltaE(h)  residm     vres2    diffor    maxfor
 ETOT  1  -91.469952937278    -9.147E+01 8.424E-02 9.513E+03 7.976E-02 7.976E-02
 ETOT  2  -86.122484483789     5.347E+00 2.926E-02 9.248E+04 1.092E+00 1.012E+00
 ETOT  3  -92.223654012982    -6.101E+00 3.774E-02 1.851E+03 8.630E-01 1.500E-01
 ETOT  4  -92.297705555808    -7.405E-02 4.769E-03 8.644E+02 2.853E-02 1.219E-01
 ETOT  5  -92.315452542933    -1.775E-02 1.074E-03 4.552E+02 1.813E-02 1.038E-01
 ETOT  6  -92.320294535405    -4.842E-03 3.301E-04 3.093E+02 1.012E-02 9.383E-02
 ETOT  7  -92.323992490460    -3.698E-03 5.031E-04 1.942E+02 8.668E-03 8.516E-02
 ETOT  8  -92.325888863470    -1.896E-03 1.977E-04 1.232E+02 6.090E-03 7.907E-02
 ETOT  9  -92.326877204881    -9.883E-04 2.709E-04 8.196E+01 4.244E-03 7.483E-02
 ETOT 10  -92.327457495570    -5.803E-04 1.548E-04 5.369E+01 3.868E-03 7.097E-02
 
 Cartesian components of stress tensor (hartree/bohr^3)
  sigma(1 1)=  1.47777792E-04  sigma(3 2)=  7.02190613E-08
  sigma(2 2)=  1.48933121E-04  sigma(3 1)= -5.58245560E-08
  sigma(3 3)=  4.23441207E-04  sigma(2 1)= -3.83809998E-07
 
 
 scprqt:  WARNING -
  nstep=   10 was not enough SCF cycles to converge;
  maximum force difference=  3.868E-03 exceeds toldff=  5.000E-05
 

--- !ResultsGS
iteration_state: {dtset: 21, itime: 1, icycle: 1, }
comment   : Summary of ground state results
lattice_vectors:
- [  2.9763187,  -5.1551351,   0.0000000, ]
- [  2.9763187,   5.1551351,   0.0000000, ]
- [  0.0000000,   0.0000000,  37.7945227, ]
lattice_lengths: [   5.95264,    5.95264,   37.79452, ]
lattice_angles: [ 90.000,  90.000, 120.000, ] # degrees, (23, 13, 12)
lattice_volume:   1.1597873E+03
convergence: {deltae: -5.803E-04, res2:  5.369E+01, residm:  1.548E-04, diffor:  3.868E-03, }
etotal    :  -9.23274575E+01
entropy   :   0.00000000E+00
fermie    :  -6.95730290E-02
cartesian_stress_tensor: # hartree/bohr^3
- [  1.47777792E-04,  -3.83809998E-07,  -5.58245560E-08, ]
- [ -3.83809998E-07,   1.48933121E-04,   7.02190613E-08, ]
- [ -5.58245560E-08,   7.02190613E-08,   4.23441207E-04, ]
pressure_GPa:  -7.0625E+00
xred      :
- [  3.3333E-01,   6.6667E-01,   0.0000E+00, Mo]
- [  6.6667E-01,   3.3333E-01,  -9.1944E-02,  S]
- [  6.6667E-01,   3.3333E-01,   9.1944E-02,  S]
cartesian_forces: # hartree/bohr
- [ -2.98921743E-05,   3.42533416E-05,   7.56929329E-05, ]
- [  1.62766519E-05,  -3.34674861E-05,   7.08941535E-02, ]
- [  1.36155224E-05,  -7.85855507E-07,  -7.09698465E-02, ]
force_length_stats: {min:   8.82963962E-05, max:   7.09698478E-02, mean:   4.73174358E-02, }
...

 Integrated electronic density in atomic spheres:
 ------------------------------------------------
 Atom  Sphere_radius  Integrated_density
    1        2.00000         10.41979836
    2        2.00000          3.81717058
    3        2.00000          3.81704798
 
---OUTPUT-----------------------------------------------------------------------
 
 Cartesian coordinates (xcart) [bohr]
  2.97631865929489E+00  1.71837837912920E+00  0.00000000000000E+00
  2.97631865929489E+00 -1.71837837912920E+00 -3.47498847295358E+00
  2.97631865929489E+00 -1.71837837912920E+00  3.47498847295358E+00
 Reduced coordinates (xred)
  3.33333333333333E-01  6.66666666666667E-01  0.00000000000000E+00
  6.66666666666667E-01  3.33333333333333E-01 -9.19442350000000E-02
  6.66666666666667E-01  3.33333333333333E-01  9.19442350000000E-02
 Cartesian forces (fcart) [Ha/bohr]; max,rms= 7.09698E-02 3.34377E-02 (free atoms)
 -2.98921743384108E-05  3.42533415804876E-05  7.56929329085236E-05
  1.62766519371154E-05 -3.34674860735955E-05  7.08941535283085E-02
  1.36155224012953E-05 -7.85855506892074E-07 -7.09698464612170E-02
 Gradient of E wrt nuclear positions in reduced coordinates (gred)
  2.65549241004819E-04 -8.76119685042037E-05 -2.86077826783993E-03
 -2.20973916289308E-04  1.24084910546738E-04 -2.67941069182503E+00
 -4.45753247155117E-05 -3.64729420425339E-05  2.68227147009287E+00
 Total energy (etotal) [Ha]= -9.23274574955698E+01
 
--- Iteration: ( 2/10) Internal Cycle: (1/1)
--------------------------------------------------------------------------------
 
---SELF-CONSISTENT-FIELD CONVERGENCE--------------------------------------------

--- !BeginCycle
iteration_state: {dtset: 21, itime: 2, icycle: 1, }
solver: {iscf: 7, nstep: 10, nline: 4, wfoptalg: 0, }
tolerances: {toldff: 5.00E-05, }
...
 
     iter   Etot(hartree)      deltaE(h)  residm     vres2    diffor    maxfor
 ETOT  1  -92.336331824137    -9.234E+01 3.118E-04 8.781E+01 6.459E-03 6.552E-02
 ETOT  2  -92.335151207702     1.181E-03 8.496E-05 2.289E+01 4.431E-03 6.894E-02
 ETOT  3  -92.327243537324     7.908E-03 6.002E-05 1.395E+02 3.238E-02 3.708E-02
 ETOT  4  -92.336791609123    -9.548E-03 8.635E-05 1.218E+00 2.483E-02 6.173E-02
 ETOT  5  -92.336814152771    -2.254E-05 2.489E-05 2.875E-01 1.100E-03 6.063E-02
 ETOT  6  -92.336815265122    -1.112E-06 1.053E-05 1.746E-01 1.866E-04 6.044E-02
 ETOT  7  -92.336817527902    -2.263E-06 1.175E-05 8.820E-02 2.097E-04 6.023E-02
 ETOT  8  -92.336817659000    -1.311E-07 5.438E-06 6.270E-02 4.069E-05 6.019E-02
 ETOT  9  -92.336818249665    -5.907E-07 6.042E-06 2.493E-02 1.796E-04 6.001E-02
 ETOT 10  -92.336818315688    -6.602E-08 2.930E-06 1.507E-02 6.484E-05 5.995E-02
 
 Cartesian components of stress tensor (hartree/bohr^3)
  sigma(1 1)=  1.49611239E-04  sigma(3 2)=  4.68556304E-09
  sigma(2 2)=  1.49611182E-04  sigma(3 1)= -7.01758391E-10
  sigma(3 3)=  4.34696890E-04  sigma(2 1)=  1.63116179E-10
 
 
 scprqt:  WARNING -
  nstep=   10 was not enough SCF cycles to converge;
  maximum force difference=  6.484E-05 exceeds toldff=  5.000E-05
 

--- !ResultsGS
iteration_state: {dtset: 21, itime: 2, icycle: 1, }
comment   : Summary of ground state results
lattice_vectors:
- [  2.9763187,  -5.1551351,   0.0000000, ]
- [  2.9763187,   5.1551351,   0.0000000, ]
- [  0.0000000,   0.0000000,  37.7945227, ]
lattice_lengths: [   5.95264,    5.95264,   37.79452, ]
lattice_angles: [ 90.000,  90.000, 120.000, ] # degrees, (23, 13, 12)
lattice_volume:   1.1597873E+03
convergence: {deltae: -6.602E-08, res2:  1.507E-02, residm:  2.930E-06, diffor:  6.484E-05, }
etotal    :  -9.23368183E+01
entropy   :   0.00000000E+00
fermie    :  -5.41267313E-02
cartesian_stress_tensor: # hartree/bohr^3
- [  1.49611239E-04,   1.63116179E-10,  -7.01758391E-10, ]
- [  1.63116179E-10,   1.49611182E-04,   4.68556304E-09, ]
- [ -7.01758391E-10,   4.68556304E-09,   4.34696890E-04, ]
pressure_GPa:  -7.1975E+00
xred      :
- [  3.3332E-01,   6.6666E-01,   2.0027E-06, Mo]
- [  6.6667E-01,   3.3333E-01,  -9.0068E-02,  S]
- [  6.6667E-01,   3.3334E-01,   9.0066E-02,  S]
cartesian_forces: # hartree/bohr
- [  5.38516757E-06,  -6.14104813E-06,  -8.20191153E-05, ]
- [ -2.75301066E-06,   3.89015665E-06,   5.99482251E-02, ]
- [ -2.63215691E-06,   2.25089148E-06,  -5.98662059E-02, ]
force_length_stats: {min:   8.24248008E-05, max:   5.99482252E-02, mean:   3.99656187E-02, }
...

 Integrated electronic density in atomic spheres:
 ------------------------------------------------
 Atom  Sphere_radius  Integrated_density
    1        2.00000         10.40938975
    2        2.00000          3.81960120
    3        2.00000          3.81970067
 
---OUTPUT-----------------------------------------------------------------------
 
 Cartesian coordinates (xcart) [bohr]
  2.97628876712055E+00  1.71841263247078E+00  7.56929329085275E-05
  2.97633493594683E+00 -1.71841184661528E+00 -3.40409431942527E+00
  2.97633227481729E+00 -1.71837916498471E+00  3.40401862649236E+00
 Reduced coordinates (xred)
  3.33324989409848E-01  6.66664967252136E-01  2.00274874732624E-06
  6.66672647060251E-01  3.33332821659265E-01 -9.00684564865269E-02
  6.66669030196567E-01  3.33335544421933E-01  9.00664537377796E-02
 Cartesian forces (fcart) [Ha/bohr]; max,rms= 5.99482E-02 2.82406E-02 (free atoms)
  5.38516757493981E-06 -6.14104812567866E-06 -8.20191153315925E-05
 -2.75301066222857E-06  3.89015664515831E-06  5.99482250568852E-02
 -2.63215691271124E-06  2.25089148052034E-06 -5.98662059415537E-02
 Gradient of E wrt nuclear positions in reduced coordinates (gred)
 -4.76859077097975E-05  1.56299582363512E-05  3.09987331276544E-03
  2.82481202146262E-05 -1.18604462081689E-05 -2.26571455020212E+00
  1.94377874951713E-05 -3.76951202818233E-06  2.26261467688935E+00
 Total energy (etotal) [Ha]= -9.23368183156882E+01
 
 Difference of energy with previous step (new-old):
           Absolute (Ha)=-9.36082E-03
           Relative     =-1.01382E-04
 
--- Iteration: ( 3/10) Internal Cycle: (1/1)
--------------------------------------------------------------------------------
 
---SELF-CONSISTENT-FIELD CONVERGENCE--------------------------------------------

--- !BeginCycle
iteration_state: {dtset: 21, itime: 3, icycle: 1, }
solver: {iscf: 7, nstep: 10, nline: 4, wfoptalg: 0, }
tolerances: {toldff: 5.00E-05, }
...
 
     iter   Etot(hartree)      deltaE(h)  residm     vres2    diffor    maxfor
 ETOT  1  -91.954287668647    -9.195E+01 1.149E-01 9.574E+03 2.151E-01 2.749E-01
 ETOT  2  -91.868645140788     8.564E-02 6.386E-04 4.582E+03 4.178E-01 1.429E-01
 ETOT  3  -92.320513248886    -4.519E-01 5.465E-03 1.099E+03 1.954E-01 5.252E-02
 ETOT  4  -92.363839203505    -4.333E-02 1.357E-03 1.857E+02 3.800E-02 1.452E-02
 ETOT  5  -92.364228296381    -3.891E-04 6.021E-04 1.700E+02 1.080E-03 1.558E-02
 ETOT  6  -92.364382032886    -1.537E-04 2.447E-04 1.558E+02 1.257E-03 1.432E-02
 ETOT  7  -92.364441195778    -5.916E-05 1.381E-04 1.472E+02 3.211E-04 1.400E-02
 ETOT  8  -92.364558335801    -1.171E-04 5.869E-05 1.291E+02 1.002E-03 1.300E-02
 ETOT  9  -92.364686429632    -1.281E-04 3.043E-05 1.053E+02 1.314E-03 1.169E-02
 ETOT 10  -92.364728049737    -4.162E-05 2.543E-05 9.564E+01 4.538E-04 1.123E-02
 
 Cartesian components of stress tensor (hartree/bohr^3)
  sigma(1 1)=  6.22295761E-05  sigma(3 2)=  1.83331590E-09
  sigma(2 2)=  6.22314393E-05  sigma(3 1)= -4.28642313E-09
  sigma(3 3)=  7.90192573E-05  sigma(2 1)= -1.10539539E-08
 
 
 scprqt:  WARNING -
  nstep=   10 was not enough SCF cycles to converge;
  maximum force difference=  4.538E-04 exceeds toldff=  5.000E-05
 

--- !ResultsGS
iteration_state: {dtset: 21, itime: 3, icycle: 1, }
comment   : Summary of ground state results
lattice_vectors:
- [  2.9763187,  -5.1551351,   0.0000000, ]
- [  2.9763187,   5.1551351,   0.0000000, ]
- [  0.0000000,   0.0000000,  37.7945227, ]
lattice_lengths: [   5.95264,    5.95264,   37.79452, ]
lattice_angles: [ 90.000,  90.000, 120.000, ] # degrees, (23, 13, 12)
lattice_volume:   1.1597873E+03
convergence: {deltae: -4.162E-05, res2:  9.564E+01, residm:  2.543E-05, diffor:  4.538E-04, }
etotal    :  -9.23647280E+01
entropy   :   0.00000000E+00
fermie    :  -8.51010812E-02
cartesian_stress_tensor: # hartree/bohr^3
- [  6.22295761E-05,  -1.10539539E-08,  -4.28642313E-09, ]
- [ -1.10539539E-08,   6.22314393E-05,   1.83331590E-09, ]
- [ -4.28642313E-09,   1.83331590E-09,   7.90192573E-05, ]
pressure_GPa:  -1.9955E+00
xred      :
- [  3.3333E-01,   6.6667E-01,  -1.1959E-05, Mo]
- [  6.6667E-01,   3.3333E-01,  -7.9863E-02,  S]
- [  6.6666E-01,   3.3333E-01,   7.9875E-02,  S]
cartesian_forces: # hartree/bohr
- [ -3.03174611E-06,   8.95464308E-07,   1.97531598E-04, ]
- [  2.37348840E-07,  -2.49686519E-07,   1.10352471E-02, ]
- [  2.79439726E-06,  -6.45777788E-07,  -1.12327787E-02, ]
force_length_stats: {min:   1.97556892E-04, max:   1.12327791E-02, mean:   7.48852772E-03, }
...

 Integrated electronic density in atomic spheres:
 ------------------------------------------------
 Atom  Sphere_radius  Integrated_density
    1        2.00000         10.51028195
    2        2.00000          3.92504934
    3        2.00000          3.92478858
 
---OUTPUT-----------------------------------------------------------------------
 
 Cartesian coordinates (xcart) [bohr]
  2.97632340974419E+00  1.71837312731417E+00 -4.51989248117639E-04
  2.97631722605658E+00 -1.71838682309318E+00 -3.01838999341542E+00
  2.97631534208390E+00 -1.71836468335019E+00  3.01884198266354E+00
 Reduced coordinates (xred)
  3.33334640751493E-01  6.66666955330731E-01 -1.19591204315792E-05
  6.66667244878706E-01  3.33332273573961E-01 -7.98631595575780E-02
  6.66664781036468E-01  3.33334104428642E-01  7.98751186780096E-02
 Cartesian forces (fcart) [Ha/bohr]; max,rms= 1.12328E-02 5.24924E-03 (free atoms)
 -3.03174610533199E-06  8.95464307526603E-07  1.97531598343488E-04
  2.37348840344150E-07 -2.49686519242232E-07  1.10352471447654E-02
  2.79439726498784E-06 -6.45777788284371E-07 -1.12327787431089E-02
 Gradient of E wrt nuclear positions in reduced coordinates (gred)
  1.36396820195511E-05  4.40720298753736E-06 -7.46561246920720E-03
 -1.99359353095593E-06  5.80741966399338E-07 -4.17071898246299E-01
 -1.16460884885951E-05 -4.98794495393670E-06  4.24537510715506E-01
 Total energy (etotal) [Ha]= -9.23647280497370E+01
 
 Difference of energy with previous step (new-old):
           Absolute (Ha)=-2.79097E-02
           Relative     =-3.02214E-04
 
--- Iteration: ( 4/10) Internal Cycle: (1/1)
--------------------------------------------------------------------------------
 
---SELF-CONSISTENT-FIELD CONVERGENCE--------------------------------------------

--- !BeginCycle
iteration_state: {dtset: 21, itime: 4, icycle: 1, }
solver: {iscf: 7, nstep: 10, nline: 4, wfoptalg: 0, }
tolerances: {toldff: 5.00E-05, }
...
 
     iter   Etot(hartree)      deltaE(h)  residm     vres2    diffor    maxfor
 ETOT  1  -92.357837632200    -9.236E+01 6.817E-04 2.664E+02 2.336E-02 3.459E-02
 ETOT  2  -92.360638760679    -2.801E-03 1.287E-04 3.391E+01 5.900E-02 2.452E-02
 ETOT  3  -92.352897323859     7.741E-03 2.200E-04 1.627E+02 3.866E-02 1.425E-02
 ETOT  4  -92.364755650507    -1.186E-02 1.271E-04 3.384E+00 2.267E-02 8.594E-03
 ETOT  5  -92.364775440047    -1.979E-05 1.111E-04 3.082E+00 2.126E-04 8.381E-03
 ETOT  6  -92.364780033481    -4.593E-06 4.749E-05 2.841E+00 2.739E-04 8.651E-03
 ETOT  7  -92.364780400366    -3.669E-07 5.055E-05 2.764E+00 1.750E-05 8.634E-03
 ETOT  8  -92.364782662525    -2.262E-06 2.599E-05 2.347E+00 1.296E-04 8.762E-03
 ETOT  9  -92.364784104845    -1.442E-06 3.134E-05 2.007E+00 1.008E-04 8.861E-03
 ETOT 10  -92.364784928109    -8.233E-07 1.599E-05 1.859E+00 6.095E-05 8.921E-03
 
 Cartesian components of stress tensor (hartree/bohr^3)
  sigma(1 1)=  3.47265195E-05  sigma(3 2)=  4.83717912E-09
  sigma(2 2)=  3.47207060E-05  sigma(3 1)=  4.37756484E-10
  sigma(3 3)=  2.86623418E-05  sigma(2 1)= -2.30470558E-09
 
 
 scprqt:  WARNING -
  nstep=   10 was not enough SCF cycles to converge;
  maximum force difference=  6.095E-05 exceeds toldff=  5.000E-05
 

--- !ResultsGS
iteration_state: {dtset: 21, itime: 4, icycle: 1, }
comment   : Summary of ground state results
lattice_vectors:
- [  2.9763187,  -5.1551351,   0.0000000, ]
- [  2.9763187,   5.1551351,   0.0000000, ]
- [  0.0000000,   0.0000000,  37.7945227, ]
lattice_lengths: [   5.95264,    5.95264,   37.79452, ]
lattice_angles: [ 90.000,  90.000, 120.000, ] # degrees, (23, 13, 12)
lattice_volume:   1.1597873E+03
convergence: {deltae: -8.233E-07, res2:  1.859E+00, residm:  1.599E-05, diffor:  6.095E-05, }
etotal    :  -9.23647849E+01
entropy   :   0.00000000E+00
fermie    :  -6.54856266E-02
cartesian_stress_tensor: # hartree/bohr^3
- [  3.47265195E-05,  -2.30470558E-09,   4.37756484E-10, ]
- [ -2.30470558E-09,   3.47207060E-05,   4.83717912E-09, ]
- [  4.37756484E-10,   4.83717912E-09,   2.86623418E-05, ]
pressure_GPa:  -9.6216E-01
xred      :
- [  3.3334E-01,   6.6667E-01,  -8.2316E-06, Mo]
- [  6.6667E-01,   3.3333E-01,  -7.7537E-02,  S]
- [  6.6666E-01,   3.3333E-01,   7.7545E-02,  S]
cartesian_forces: # hartree/bohr
- [ -2.69719671E-06,   4.00216624E-06,   1.63576265E-04, ]
- [  1.53835402E-06,  -1.04918746E-06,  -8.92136362E-03, ]
- [  1.15884269E-06,  -2.95297878E-06,   8.75778735E-03, ]
force_length_stats: {min:   1.63647446E-04, max:   8.92136381E-03, mean:   5.94759973E-03, }
...

 Integrated electronic density in atomic spheres:
 ------------------------------------------------
 Atom  Sphere_radius  Integrated_density
    1        2.00000         10.53072962
    2        2.00000          3.94825275
    3        2.00000          3.94805524
 
---OUTPUT-----------------------------------------------------------------------
 
 Cartesian coordinates (xcart) [bohr]
  2.97632636610601E+00  1.71836660935522E+00 -3.11107601948024E-04
  2.97631410253372E+00 -1.71838230408334E+00 -2.93047255708426E+00
  2.97631550924494E+00 -1.71836268440107E+00  2.93078366468621E+00
 Reduced coordinates (xred)
  3.33335769580079E-01  6.66666819796933E-01 -8.23155261849922E-06
  6.66666281847684E-01  3.33332187146503E-01 -7.75369643803723E-02
  6.66664615238904E-01  3.33334326389897E-01  7.75451959329908E-02
 Cartesian forces (fcart) [Ha/bohr]; max,rms= 8.92136E-03 4.16755E-03 (free atoms)
 -2.69719671303097E-06  4.00216624212714E-06  1.63576265070190E-04
  1.53835402447898E-06 -1.04918746385329E-06 -8.92136361861029E-03
  1.15884268855200E-06 -2.95297877827385E-06  8.75778735354010E-03
 Gradient of E wrt nuclear positions in reduced coordinates (gred)
  2.86594247252391E-05 -1.26039909156732E-05 -6.18228685645936E-03
 -9.98733494827488E-06  8.30071372958542E-07  3.37178679421262E-01
 -1.86720897769642E-05  1.17739195427147E-05 -3.30996392564803E-01
 Total energy (etotal) [Ha]= -9.23647849281093E+01
 
 Difference of energy with previous step (new-old):
           Absolute (Ha)=-5.68784E-05
           Relative     =-6.15802E-07
 
--- Iteration: ( 5/10) Internal Cycle: (1/1)
--------------------------------------------------------------------------------
 
---SELF-CONSISTENT-FIELD CONVERGENCE--------------------------------------------

--- !BeginCycle
iteration_state: {dtset: 21, itime: 5, icycle: 1, }
solver: {iscf: 7, nstep: 10, nline: 4, wfoptalg: 0, }
tolerances: {toldff: 5.00E-05, }
...
 
     iter   Etot(hartree)      deltaE(h)  residm     vres2    diffor    maxfor
