
.Version 9.10.3 of ABINIT 
.(MPI version, prepared for a x86_64_linux_intel2021.6 computer) 

.Copyright (C) 1998-2022 ABINIT group . 
 ABINIT comes with ABSOLUTELY NO WARRANTY.
 It is free software, and you are welcome to redistribute it
 under certain conditions (GNU General Public License,
 see ~abinit/COPYING or http://www.gnu.org/copyleft/gpl.txt).

 ABINIT is a project of the Universite Catholique de Louvain,
 Corning Inc. and other collaborators, see ~abinit/doc/developers/contributors.txt .
 Please read https://docs.abinit.org/theory/acknowledgments for suggested
 acknowledgments of the ABINIT effort.
 For more information, see https://www.abinit.org .

.Starting date : Wed  7 May 2025.
- ( at 07h47 )
  
- input  file    -> mos2_k_draft.abi
- output file    -> mos2_k_draft.abo
- root for input  files -> mos2_k_drafti
- root for output files -> mos2_k_drafto
 
 
 DATASET   11 : space group P1 (#  1); Bravais aP (primitive triclinic)
================================================================================
 Values of the parameters that define the memory need for DATASET 11.
     intxc =       0    ionmov =       2      iscf =       7    lmnmax =       6
     lnmax =       6     mgfft =     180  mpssoang =       3    mqgrid =    8507
     natom =       3  nloc_mem =       1    nspden =       1   nspinor =       1
    nsppol =       1      nsym =       1    n1xccc =    2501    ntypat =       2
    occopt =       1   xclevel =       2
-    mband =          14        mffmem =           1         mkmem =          14
       mpw =        6951          nfft =      162000          nkpt =          14
================================================================================
P This job should need less than                      72.746 Mbytes of memory.
  Rough estimation (10% accuracy) of disk space for files :
_ WF disk file :     20.791 Mbytes ; DEN or POT disk file :      1.238 Mbytes.
================================================================================
 
 
 DATASET   21 : space group P1 (#  1); Bravais aP (primitive triclinic)
================================================================================
 Values of the parameters that define the memory need for DATASET 21.
     intxc =       0    ionmov =       2      iscf =       7    lmnmax =       6
     lnmax =       6     mgfft =     180  mpssoang =       3    mqgrid =    8507
     natom =       3  nloc_mem =       1    nspden =       1   nspinor =       1
    nsppol =       1      nsym =       1    n1xccc =    2501    ntypat =       2
    occopt =       1   xclevel =       2
-    mband =          14        mffmem =           1         mkmem =          14
       mpw =        6951          nfft =      162000          nkpt =          14
================================================================================
P This job should need less than                      72.746 Mbytes of memory.
  Rough estimation (10% accuracy) of disk space for files :
_ WF disk file :     20.791 Mbytes ; DEN or POT disk file :      1.238 Mbytes.
================================================================================
 
 
 DATASET   31 : space group P1 (#  1); Bravais aP (primitive triclinic)
================================================================================
 Values of the parameters that define the memory need for DATASET 31.
     intxc =       0    ionmov =       2      iscf =       7    lmnmax =       6
     lnmax =       6     mgfft =     180  mpssoang =       3    mqgrid =    8507
     natom =       3  nloc_mem =       1    nspden =       1   nspinor =       1
    nsppol =       1      nsym =       1    n1xccc =    2501    ntypat =       2
    occopt =       1   xclevel =       2
-    mband =          14        mffmem =           1         mkmem =          14
       mpw =        6951          nfft =      162000          nkpt =          14
================================================================================
P This job should need less than                      72.746 Mbytes of memory.
  Rough estimation (10% accuracy) of disk space for files :
_ WF disk file :     20.791 Mbytes ; DEN or POT disk file :      1.238 Mbytes.
================================================================================
 
 
 DATASET   41 : space group P1 (#  1); Bravais aP (primitive triclinic)
================================================================================
 Values of the parameters that define the memory need for DATASET 41.
     intxc =       0    ionmov =       2      iscf =       7    lmnmax =       6
     lnmax =       6     mgfft =     180  mpssoang =       3    mqgrid =    8507
     natom =       3  nloc_mem =       1    nspden =       1   nspinor =       1
    nsppol =       1      nsym =       1    n1xccc =    2501    ntypat =       2
    occopt =       1   xclevel =       2
-    mband =          14        mffmem =           1         mkmem =          14
       mpw =        6951          nfft =      162000          nkpt =          14
================================================================================
P This job should need less than                      72.746 Mbytes of memory.
  Rough estimation (10% accuracy) of disk space for files :
_ WF disk file :     20.791 Mbytes ; DEN or POT disk file :      1.238 Mbytes.
================================================================================
 
--------------------------------------------------------------------------------
------------- Echo of variables that govern the present computation ------------
--------------------------------------------------------------------------------
-
- outvars: echo of selected default values                                      
-   iomode0 =  0 , fftalg0 =512 , wfoptalg0 =  0
-
- outvars: echo of global parameters not present in the input file              
-  max_nthreads =    0
-
 -outvars: echo values of preprocessed input variables --------
            acell      5.9526373186E+00  5.9526373186E+00  3.7794522658E+01 Bohr
              amu      9.59400000E+01  3.20660000E+01
      chksymbreak           0
             ecut      2.50000000E+01 Hartree
-          fftalg         512
           getwfk          -1
           ionmov           2
           istwfk        2    0    0    0    0    0    0    0    0    0
                         0    0    0    0
              ixc          11
           jdtset       11   21   31   41
              kpt      0.00000000E+00  0.00000000E+00  0.00000000E+00
                       1.11111111E-01  1.11111111E-01  0.00000000E+00
                       3.33333333E-01  0.00000000E+00  0.00000000E+00
                       0.00000000E+00  3.33333333E-01  0.00000000E+00
                       2.22222222E-01  2.22222222E-01  0.00000000E+00
                       4.44444444E-01  1.11111111E-01  0.00000000E+00
                       1.11111111E-01  4.44444444E-01  0.00000000E+00
                       3.33333333E-01  3.33333333E-01  0.00000000E+00
                      -4.44444444E-01  2.22222222E-01  0.00000000E+00
                      -2.22222222E-01  1.11111111E-01  0.00000000E+00
                       2.22222222E-01 -4.44444444E-01  0.00000000E+00
                       4.44444444E-01  4.44444444E-01  0.00000000E+00
                      -3.33333333E-01  3.33333333E-01  0.00000000E+00
                      -1.11111111E-01  2.22222222E-01  0.00000000E+00
         kptrlatt        3   -3    0      3    6    0      0    0    1
          kptrlen      3.09308108E+01
P           mkmem          14
            natom           3
            nband          14
           ndtset           4
            ngfft          30      30     180
             nkpt          14
            nstep          10
             nsym           1
            ntime          10
           ntypat           2
              occ      2.000000  2.000000  2.000000  2.000000  2.000000  2.000000
                       2.000000  2.000000  2.000000  2.000000  2.000000  2.000000
                       2.000000  0.000000
        optforces           1
            rprim      5.0000000000E-01 -8.6602540378E-01  0.0000000000E+00
                       5.0000000000E-01  8.6602540378E-01  0.0000000000E+00
                       0.0000000000E+00  0.0000000000E+00  1.0000000000E+00
          spgroup           1
           toldff      5.00000000E-05
           tolmxf      5.00000000E-04
            typat      1  2  2
              wtk        0.03704    0.07407    0.07407    0.07407    0.07407    0.07407
                         0.07407    0.07407    0.07407    0.07407    0.07407    0.07407
                         0.07407    0.07407
           xangst      1.5750000000E+00  9.0932667397E-01  0.0000000000E+00
                       1.5750000000E+00 -9.0932667397E-01 -1.8388847000E+00
                       1.5750000000E+00 -9.0932667397E-01  1.8388847000E+00
            xcart      2.9763186593E+00  1.7183783791E+00  0.0000000000E+00
                       2.9763186593E+00 -1.7183783791E+00 -3.4749884730E+00
                       2.9763186593E+00 -1.7183783791E+00  3.4749884730E+00
             xred      3.3333333333E-01  6.6666666667E-01  0.0000000000E+00
                       6.6666666667E-01  3.3333333333E-01 -9.1944235000E-02
                       6.6666666667E-01  3.3333333333E-01  9.1944235000E-02
            znucl       42.00000   16.00000
 
================================================================================
 
 chkinp: Checking input parameters for consistency, jdtset=  11.
 
 chkinp: Checking input parameters for consistency, jdtset=  21.
 
 chkinp: Checking input parameters for consistency, jdtset=  31.
 
 chkinp: Checking input parameters for consistency, jdtset=  41.
 
================================================================================
== DATASET 11 ==================================================================
-   mpi_nproc: 1, omp_nthreads: -1 (-1 if OMP is not activated)
 

--- !DatasetInfo
iteration_state: {dtset: 11, }
dimensions: {natom: 3, nkpt: 14, mband: 14, nsppol: 1, nspinor: 1, nspden: 1, mpw: 6951, }
cutoff_energies: {ecut:  25.0, pawecutdg:  -1.0, }
electrons: {nelect:   2.60000000E+01, charge:   0.00000000E+00, occopt:   1.00000000E+00, tsmear:   1.00000000E-02, }
meta: {optdriver: 0, ionmov: 2, optcell: 0, iscf: 7, paral_kgb: 0, }
...

 Exchange-correlation functional for the present dataset will be:
  GGA: Perdew-Burke-Ernzerhof functional - ixc=11
 Citation for XC functional:
  J.P.Perdew, K.Burke, M.Ernzerhof, PRL 77, 3865 (1996)
 
 Real(R)+Recip(G) space primitive vectors, cartesian coordinates (Bohr,Bohr^-1):
 R(1)=  2.9763187 -5.1551351  0.0000000  G(1)=  0.1679928 -0.0969907  0.0000000
 R(2)=  2.9763187  5.1551351  0.0000000  G(2)=  0.1679928  0.0969907  0.0000000
 R(3)=  0.0000000  0.0000000 37.7945227  G(3)=  0.0000000  0.0000000  0.0264589
 Unit cell volume ucvol=  1.1597873E+03 bohr^3
 Angles (23,13,12)=  9.00000000E+01  9.00000000E+01  1.20000000E+02 degrees
 
 getcut: wavevector=  0.0000  0.0000  0.0000  ngfft=  30  30 180
         ecut(hartree)=     25.000   => boxcut(ratio)=   2.11597
 
--- Pseudopotential description ------------------------------------------------
- pspini: atom type   1  psp file is ./persudo/Mo.psp8
- pspatm: opening atomic psp file    ./persudo/Mo.psp8
- Mo    ONCVPSP-3.2.3.1  r_core=   1.45541   1.45541   1.35488
- 42.00000  14.00000    170510                znucl, zion, pspdat
    8   11    2    4       600   0.00000      pspcod,pspxc,lmax,lloc,mmax,r2well
    5.99000000000000    3.00000000000000    0.00000000000000   rchrg,fchrg,qchrg
     nproj     2     2     2
     extension_switch     1
  pspatm : epsatm=   15.95693586
         --- l  ekb(1:nproj) -->
             0   13.833287    1.350687
             1    8.015347    1.134034
             2    2.765699    0.969071
 pspatm: atomic psp has been read  and splines computed
 
- pspini: atom type   2  psp file is ./persudo/S.psp8
- pspatm: opening atomic psp file    ./persudo/S.psp8
- S     ONCVPSP-4.0.1  r_core=   1.45687   1.45687   1.45687
- 16.00000   6.00000    220131                znucl, zion, pspdat
    8   11    2    4       600   0.00000      pspcod,pspxc,lmax,lloc,mmax,r2well
    5.99000000000000    6.00000000000000    0.00000000000000   rchrg,fchrg,qchrg
     nproj     2     2     2
     extension_switch     1
  pspatm : epsatm=    9.04179351
         --- l  ekb(1:nproj) -->
             0    6.774234    0.542270
             1    3.022426    0.737017
             2   -5.033160   -1.531047
 pspatm: atomic psp has been read  and splines computed
 
   8.85053595E+02                                ecore*ucvol(ha*bohr**3)
--------------------------------------------------------------------------------
 
_setup2: Arith. and geom. avg. npw (full set) are    6926.037    6926.015
 
================================================================================
 
=== [ionmov= 2] Broyden-Fletcher-Goldfard-Shanno method (forces)            
================================================================================
 
--- Iteration: ( 1/10) Internal Cycle: (1/1)
--------------------------------------------------------------------------------
 
---SELF-CONSISTENT-FIELD CONVERGENCE--------------------------------------------

--- !BeginCycle
iteration_state: {dtset: 11, itime: 1, icycle: 1, }
solver: {iscf: 7, nstep: 10, nline: 4, wfoptalg: 0, }
tolerances: {toldff: 5.00E-05, }
...
 
     iter   Etot(hartree)      deltaE(h)  residm     vres2    diffor    maxfor
 ETOT  1  -91.469952937278    -9.147E+01 8.424E-02 9.513E+03 7.976E-02 7.976E-02
 ETOT  2  -86.122484483789     5.347E+00 2.926E-02 9.248E+04 1.092E+00 1.012E+00
 ETOT  3  -92.223654012982    -6.101E+00 3.774E-02 1.851E+03 8.630E-01 1.500E-01
 ETOT  4  -92.297705555808    -7.405E-02 4.769E-03 8.644E+02 2.853E-02 1.219E-01
 ETOT  5  -92.315452542933    -1.775E-02 1.074E-03 4.552E+02 1.813E-02 1.038E-01
 ETOT  6  -92.320294535405    -4.842E-03 3.301E-04 3.093E+02 1.012E-02 9.383E-02
 ETOT  7  -92.323992490460    -3.698E-03 5.031E-04 1.942E+02 8.668E-03 8.516E-02
 ETOT  8  -92.325888863470    -1.896E-03 1.977E-04 1.232E+02 6.090E-03 7.907E-02
 ETOT  9  -92.326877204881    -9.883E-04 2.709E-04 8.196E+01 4.244E-03 7.483E-02
 ETOT 10  -92.327457495570    -5.803E-04 1.548E-04 5.369E+01 3.868E-03 7.097E-02
 
 Cartesian components of stress tensor (hartree/bohr^3)
  sigma(1 1)=  1.47777792E-04  sigma(3 2)=  7.02190613E-08
  sigma(2 2)=  1.48933121E-04  sigma(3 1)= -5.58245560E-08
  sigma(3 3)=  4.23441207E-04  sigma(2 1)= -3.83809998E-07
 
 
 scprqt:  WARNING -
  nstep=   10 was not enough SCF cycles to converge;
  maximum force difference=  3.868E-03 exceeds toldff=  5.000E-05
 

--- !ResultsGS
iteration_state: {dtset: 11, itime: 1, icycle: 1, }
comment   : Summary of ground state results
lattice_vectors:
- [  2.9763187,  -5.1551351,   0.0000000, ]
- [  2.9763187,   5.1551351,   0.0000000, ]
- [  0.0000000,   0.0000000,  37.7945227, ]
lattice_lengths: [   5.95264,    5.95264,   37.79452, ]
lattice_angles: [ 90.000,  90.000, 120.000, ] # degrees, (23, 13, 12)
lattice_volume:   1.1597873E+03
convergence: {deltae: -5.803E-04, res2:  5.369E+01, residm:  1.548E-04, diffor:  3.868E-03, }
etotal    :  -9.23274575E+01
entropy   :   0.00000000E+00
fermie    :  -6.95730290E-02
cartesian_stress_tensor: # hartree/bohr^3
- [  1.47777792E-04,  -3.83809998E-07,  -5.58245560E-08, ]
- [ -3.83809998E-07,   1.48933121E-04,   7.02190613E-08, ]
- [ -5.58245560E-08,   7.02190613E-08,   4.23441207E-04, ]
pressure_GPa:  -7.0625E+00
xred      :
- [  3.3333E-01,   6.6667E-01,   0.0000E+00, Mo]
- [  6.6667E-01,   3.3333E-01,  -9.1944E-02,  S]
- [  6.6667E-01,   3.3333E-01,   9.1944E-02,  S]
cartesian_forces: # hartree/bohr
- [ -2.98921743E-05,   3.42533416E-05,   7.56929329E-05, ]
- [  1.62766519E-05,  -3.34674861E-05,   7.08941535E-02, ]
- [  1.36155224E-05,  -7.85855507E-07,  -7.09698465E-02, ]
force_length_stats: {min:   8.82963962E-05, max:   7.09698478E-02, mean:   4.73174358E-02, }
...

 Integrated electronic density in atomic spheres:
 ------------------------------------------------
 Atom  Sphere_radius  Integrated_density
    1        2.00000         10.41979836
    2        2.00000          3.81717058
    3        2.00000          3.81704798
 
---OUTPUT-----------------------------------------------------------------------
 
 Cartesian coordinates (xcart) [bohr]
  2.97631865929489E+00  1.71837837912920E+00  0.00000000000000E+00
  2.97631865929489E+00 -1.71837837912920E+00 -3.47498847295358E+00
  2.97631865929489E+00 -1.71837837912920E+00  3.47498847295358E+00
 Reduced coordinates (xred)
  3.33333333333333E-01  6.66666666666667E-01  0.00000000000000E+00
  6.66666666666667E-01  3.33333333333333E-01 -9.19442350000000E-02
  6.66666666666667E-01  3.33333333333333E-01  9.19442350000000E-02
 Cartesian forces (fcart) [Ha/bohr]; max,rms= 7.09698E-02 3.34377E-02 (free atoms)
 -2.98921743384108E-05  3.42533415804876E-05  7.56929329085236E-05
  1.62766519371154E-05 -3.34674860735955E-05  7.08941535283085E-02
  1.36155224012953E-05 -7.85855506892074E-07 -7.09698464612170E-02
 Gradient of E wrt nuclear positions in reduced coordinates (gred)
  2.65549241004819E-04 -8.76119685042037E-05 -2.86077826783993E-03
 -2.20973916289308E-04  1.24084910546738E-04 -2.67941069182503E+00
 -4.45753247155117E-05 -3.64729420425339E-05  2.68227147009287E+00
 Total energy (etotal) [Ha]= -9.23274574955698E+01
 
--- Iteration: ( 2/10) Internal Cycle: (1/1)
--------------------------------------------------------------------------------
 
---SELF-CONSISTENT-FIELD CONVERGENCE--------------------------------------------

--- !BeginCycle
iteration_state: {dtset: 11, itime: 2, icycle: 1, }
solver: {iscf: 7, nstep: 10, nline: 4, wfoptalg: 0, }
tolerances: {toldff: 5.00E-05, }
...
 
     iter   Etot(hartree)      deltaE(h)  residm     vres2    diffor    maxfor
 ETOT  1  -92.336331824137    -9.234E+01 3.118E-04 8.781E+01 6.459E-03 6.552E-02
 ETOT  2  -92.335151207702     1.181E-03 8.496E-05 2.289E+01 4.431E-03 6.894E-02
 ETOT  3  -92.327243537324     7.908E-03 6.002E-05 1.395E+02 3.238E-02 3.708E-02
 ETOT  4  -92.336791609123    -9.548E-03 8.635E-05 1.218E+00 2.483E-02 6.173E-02
 ETOT  5  -92.336814152771    -2.254E-05 2.489E-05 2.875E-01 1.100E-03 6.063E-02
 ETOT  6  -92.336815265122    -1.112E-06 1.053E-05 1.746E-01 1.866E-04 6.044E-02
 ETOT  7  -92.336817527902    -2.263E-06 1.175E-05 8.820E-02 2.097E-04 6.023E-02
 ETOT  8  -92.336817659000    -1.311E-07 5.438E-06 6.270E-02 4.069E-05 6.019E-02
 ETOT  9  -92.336818249665    -5.907E-07 6.042E-06 2.493E-02 1.796E-04 6.001E-02
 ETOT 10  -92.336818315688    -6.602E-08 2.930E-06 1.507E-02 6.484E-05 5.995E-02
 
 Cartesian components of stress tensor (hartree/bohr^3)
  sigma(1 1)=  1.49611239E-04  sigma(3 2)=  4.68556304E-09
  sigma(2 2)=  1.49611182E-04  sigma(3 1)= -7.01758391E-10
  sigma(3 3)=  4.34696890E-04  sigma(2 1)=  1.63116179E-10
 
 
 scprqt:  WARNING -
  nstep=   10 was not enough SCF cycles to converge;
  maximum force difference=  6.484E-05 exceeds toldff=  5.000E-05
 

--- !ResultsGS
iteration_state: {dtset: 11, itime: 2, icycle: 1, }
comment   : Summary of ground state results
lattice_vectors:
- [  2.9763187,  -5.1551351,   0.0000000, ]
- [  2.9763187,   5.1551351,   0.0000000, ]
- [  0.0000000,   0.0000000,  37.7945227, ]
lattice_lengths: [   5.95264,    5.95264,   37.79452, ]
lattice_angles: [ 90.000,  90.000, 120.000, ] # degrees, (23, 13, 12)
lattice_volume:   1.1597873E+03
convergence: {deltae: -6.602E-08, res2:  1.507E-02, residm:  2.930E-06, diffor:  6.484E-05, }
etotal    :  -9.23368183E+01
entropy   :   0.00000000E+00
fermie    :  -5.41267313E-02
cartesian_stress_tensor: # hartree/bohr^3
- [  1.49611239E-04,   1.63116179E-10,  -7.01758391E-10, ]
- [  1.63116179E-10,   1.49611182E-04,   4.68556304E-09, ]
- [ -7.01758391E-10,   4.68556304E-09,   4.34696890E-04, ]
pressure_GPa:  -7.1975E+00
xred      :
- [  3.3332E-01,   6.6666E-01,   2.0027E-06, Mo]
- [  6.6667E-01,   3.3333E-01,  -9.0068E-02,  S]
- [  6.6667E-01,   3.3334E-01,   9.0066E-02,  S]
cartesian_forces: # hartree/bohr
- [  5.38516757E-06,  -6.14104813E-06,  -8.20191153E-05, ]
- [ -2.75301066E-06,   3.89015665E-06,   5.99482251E-02, ]
- [ -2.63215691E-06,   2.25089148E-06,  -5.98662059E-02, ]
force_length_stats: {min:   8.24248008E-05, max:   5.99482252E-02, mean:   3.99656187E-02, }
...

 Integrated electronic density in atomic spheres:
 ------------------------------------------------
 Atom  Sphere_radius  Integrated_density
    1        2.00000         10.40938975
    2        2.00000          3.81960120
    3        2.00000          3.81970067
 
---OUTPUT-----------------------------------------------------------------------
 
 Cartesian coordinates (xcart) [bohr]
  2.97628876712055E+00  1.71841263247078E+00  7.56929329085275E-05
  2.97633493594683E+00 -1.71841184661528E+00 -3.40409431942527E+00
  2.97633227481729E+00 -1.71837916498471E+00  3.40401862649236E+00
 Reduced coordinates (xred)
  3.33324989409848E-01  6.66664967252136E-01  2.00274874732624E-06
  6.66672647060251E-01  3.33332821659265E-01 -9.00684564865269E-02
  6.66669030196567E-01  3.33335544421933E-01  9.00664537377796E-02
 Cartesian forces (fcart) [Ha/bohr]; max,rms= 5.99482E-02 2.82406E-02 (free atoms)
  5.38516757493981E-06 -6.14104812567866E-06 -8.20191153315925E-05
 -2.75301066222857E-06  3.89015664515831E-06  5.99482250568852E-02
 -2.63215691271124E-06  2.25089148052034E-06 -5.98662059415537E-02
 Gradient of E wrt nuclear positions in reduced coordinates (gred)
 -4.76859077097975E-05  1.56299582363512E-05  3.09987331276544E-03
  2.82481202146262E-05 -1.18604462081689E-05 -2.26571455020212E+00
  1.94377874951713E-05 -3.76951202818233E-06  2.26261467688935E+00
 Total energy (etotal) [Ha]= -9.23368183156882E+01
 
 Difference of energy with previous step (new-old):
           Absolute (Ha)=-9.36082E-03
           Relative     =-1.01382E-04
 
--- Iteration: ( 3/10) Internal Cycle: (1/1)
--------------------------------------------------------------------------------
 
---SELF-CONSISTENT-FIELD CONVERGENCE--------------------------------------------

--- !BeginCycle
iteration_state: {dtset: 11, itime: 3, icycle: 1, }
solver: {iscf: 7, nstep: 10, nline: 4, wfoptalg: 0, }
tolerances: {toldff: 5.00E-05, }
...
 
     iter   Etot(hartree)      deltaE(h)  residm     vres2    diffor    maxfor
 ETOT  1  -91.954287668647    -9.195E+01 1.149E-01 9.574E+03 2.151E-01 2.749E-01
 ETOT  2  -91.868645140788     8.564E-02 6.386E-04 4.582E+03 4.178E-01 1.429E-01
 ETOT  3  -92.320513248886    -4.519E-01 5.465E-03 1.099E+03 1.954E-01 5.252E-02
 ETOT  4  -92.363839203505    -4.333E-02 1.357E-03 1.857E+02 3.800E-02 1.452E-02
 ETOT  5  -92.364228296381    -3.891E-04 6.021E-04 1.700E+02 1.080E-03 1.558E-02
 ETOT  6  -92.364382032886    -1.537E-04 2.447E-04 1.558E+02 1.257E-03 1.432E-02
 ETOT  7  -92.364441195778    -5.916E-05 1.381E-04 1.472E+02 3.211E-04 1.400E-02
 ETOT  8  -92.364558335801    -1.171E-04 5.869E-05 1.291E+02 1.002E-03 1.300E-02
 ETOT  9  -92.364686429632    -1.281E-04 3.043E-05 1.053E+02 1.314E-03 1.169E-02
 ETOT 10  -92.364728049737    -4.162E-05 2.543E-05 9.564E+01 4.538E-04 1.123E-02
 
 Cartesian components of stress tensor (hartree/bohr^3)
  sigma(1 1)=  6.22295761E-05  sigma(3 2)=  1.83331590E-09
  sigma(2 2)=  6.22314393E-05  sigma(3 1)= -4.28642313E-09
  sigma(3 3)=  7.90192573E-05  sigma(2 1)= -1.10539539E-08
 
 
 scprqt:  WARNING -
  nstep=   10 was not enough SCF cycles to converge;
  maximum force difference=  4.538E-04 exceeds toldff=  5.000E-05
 

--- !ResultsGS
iteration_state: {dtset: 11, itime: 3, icycle: 1, }
comment   : Summary of ground state results
lattice_vectors:
- [  2.9763187,  -5.1551351,   0.0000000, ]
- [  2.9763187,   5.1551351,   0.0000000, ]
- [  0.0000000,   0.0000000,  37.7945227, ]
lattice_lengths: [   5.95264,    5.95264,   37.79452, ]
lattice_angles: [ 90.000,  90.000, 120.000, ] # degrees, (23, 13, 12)
lattice_volume:   1.1597873E+03
convergence: {deltae: -4.162E-05, res2:  9.564E+01, residm:  2.543E-05, diffor:  4.538E-04, }
etotal    :  -9.23647280E+01
entropy   :   0.00000000E+00
fermie    :  -8.51010812E-02
cartesian_stress_tensor: # hartree/bohr^3
- [  6.22295761E-05,  -1.10539539E-08,  -4.28642313E-09, ]
- [ -1.10539539E-08,   6.22314393E-05,   1.83331590E-09, ]
- [ -4.28642313E-09,   1.83331590E-09,   7.90192573E-05, ]
pressure_GPa:  -1.9955E+00
xred      :
- [  3.3333E-01,   6.6667E-01,  -1.1959E-05, Mo]
- [  6.6667E-01,   3.3333E-01,  -7.9863E-02,  S]
- [  6.6666E-01,   3.3333E-01,   7.9875E-02,  S]
cartesian_forces: # hartree/bohr
- [ -3.03174611E-06,   8.95464308E-07,   1.97531598E-04, ]
- [  2.37348840E-07,  -2.49686519E-07,   1.10352471E-02, ]
- [  2.79439726E-06,  -6.45777788E-07,  -1.12327787E-02, ]
force_length_stats: {min:   1.97556892E-04, max:   1.12327791E-02, mean:   7.48852772E-03, }
...

 Integrated electronic density in atomic spheres:
 ------------------------------------------------
 Atom  Sphere_radius  Integrated_density
    1        2.00000         10.51028195
    2        2.00000          3.92504934
    3        2.00000          3.92478858
 
---OUTPUT-----------------------------------------------------------------------
 
 Cartesian coordinates (xcart) [bohr]
  2.97632340974419E+00  1.71837312731417E+00 -4.51989248117639E-04
  2.97631722605658E+00 -1.71838682309318E+00 -3.01838999341542E+00
  2.97631534208390E+00 -1.71836468335019E+00  3.01884198266354E+00
 Reduced coordinates (xred)
  3.33334640751493E-01  6.66666955330731E-01 -1.19591204315792E-05
  6.66667244878706E-01  3.33332273573961E-01 -7.98631595575780E-02
  6.66664781036468E-01  3.33334104428642E-01  7.98751186780096E-02
 Cartesian forces (fcart) [Ha/bohr]; max,rms= 1.12328E-02 5.24924E-03 (free atoms)
 -3.03174610533199E-06  8.95464307526603E-07  1.97531598343488E-04
  2.37348840344150E-07 -2.49686519242232E-07  1.10352471447654E-02
  2.79439726498784E-06 -6.45777788284371E-07 -1.12327787431089E-02
 Gradient of E wrt nuclear positions in reduced coordinates (gred)
  1.36396820195511E-05  4.40720298753736E-06 -7.46561246920720E-03
 -1.99359353095593E-06  5.80741966399338E-07 -4.17071898246299E-01
 -1.16460884885951E-05 -4.98794495393670E-06  4.24537510715506E-01
 Total energy (etotal) [Ha]= -9.23647280497370E+01
 
 Difference of energy with previous step (new-old):
           Absolute (Ha)=-2.79097E-02
           Relative     =-3.02214E-04
 
--- Iteration: ( 4/10) Internal Cycle: (1/1)
--------------------------------------------------------------------------------
 
---SELF-CONSISTENT-FIELD CONVERGENCE--------------------------------------------

--- !BeginCycle
iteration_state: {dtset: 11, itime: 4, icycle: 1, }
solver: {iscf: 7, nstep: 10, nline: 4, wfoptalg: 0, }
tolerances: {toldff: 5.00E-05, }
...
 
     iter   Etot(hartree)      deltaE(h)  residm     vres2    diffor    maxfor
 ETOT  1  -92.357837632200    -9.236E+01 6.817E-04 2.664E+02 2.336E-02 3.459E-02
