
.Version 9.10.3 of ABINIT 
.(MPI version, prepared for a x86_64_linux_intel2021.6 computer) 

.Copyright (C) 1998-2022 ABINIT group . 
 ABINIT comes with ABSOLUTELY NO WARRANTY.
 It is free software, and you are welcome to redistribute it
 under certain conditions (GNU General Public License,
 see ~abinit/COPYING or http://www.gnu.org/copyleft/gpl.txt).

 ABINIT is a project of the Universite Catholique de Louvain,
 Corning Inc. and other collaborators, see ~abinit/doc/developers/contributors.txt .
 Please read https://docs.abinit.org/theory/acknowledgments for suggested
 acknowledgments of the ABINIT effort.
 For more information, see https://www.abinit.org .

.Starting date : Wed  7 May 2025.
- ( at 06h34 )
  
- input  file    -> mos2_ecut.abi
- output file    -> mos2_ecut.abo
- root for input  files -> mos2_ecuti
- root for output files -> mos2_ecuto
 
 
 DATASET    1 : space group P1 (#  1); Bravais aP (primitive triclinic)
================================================================================
 Values of the parameters that define the memory need for DATASET  1.
     intxc =       0    ionmov =       2      iscf =       7    lmnmax =       6
     lnmax =       6     mgfft =     108  mpssoang =       3    mqgrid =    5381
     natom =       3  nloc_mem =       1    nspden =       1   nspinor =       1
    nsppol =       1      nsym =       1    n1xccc =    2501    ntypat =       2
    occopt =       1   xclevel =       2
-    mband =          14        mffmem =           1         mkmem =           5
       mpw =        1762          nfft =       34992          nkpt =           5
================================================================================
P This job should need less than                      14.254 Mbytes of memory.
  Rough estimation (10% accuracy) of disk space for files :
_ WF disk file :      1.884 Mbytes ; DEN or POT disk file :      0.269 Mbytes.
================================================================================
 
--------------------------------------------------------------------------------
------------- Echo of variables that govern the present computation ------------
--------------------------------------------------------------------------------
-
- outvars: echo of selected default values                                      
-   iomode0 =  0 , fftalg0 =512 , wfoptalg0 =  0
-
- outvars: echo of global parameters not present in the input file              
-  max_nthreads =    0
-
 -outvars: echo values of preprocessed input variables --------
            acell      5.9526373186E+00  5.9526373186E+00  3.7794522658E+01 Bohr
              amu      9.59400000E+01  3.20660000E+01
      chksymbreak           0
             ecut      1.00000000E+01 Hartree
-          fftalg         512
           ionmov           2
           istwfk        0    0    0    0    9
              ixc          11
           jdtset        1
              kpt      1.66666667E-01  1.66666667E-01  5.00000000E-01
                       5.00000000E-01  1.66666667E-01  5.00000000E-01
                      -1.66666667E-01  1.66666667E-01  5.00000000E-01
                       1.66666667E-01  5.00000000E-01  5.00000000E-01
                       5.00000000E-01  5.00000000E-01  5.00000000E-01
         kptrlatt        3    0    0      0    3    0      0    0    1
          kptrlen      1.78579120E+01
P           mkmem           5
            natom           3
            nband          14
           ndtset           1
            ngfft          18      18     108
             nkpt           5
            nstep          10
             nsym           1
            ntime          10
           ntypat           2
              occ      2.000000  2.000000  2.000000  2.000000  2.000000  2.000000
                       2.000000  2.000000  2.000000  2.000000  2.000000  2.000000
                       2.000000  0.000000
        optforces           1
            rprim      5.0000000000E-01 -8.6602540378E-01  0.0000000000E+00
                       5.0000000000E-01  8.6602540378E-01  0.0000000000E+00
                       0.0000000000E+00  0.0000000000E+00  1.0000000000E+00
           shiftk      5.00000000E-01  5.00000000E-01  5.00000000E-01
          spgroup           1
           toldff      5.00000000E-05
           tolmxf      5.00000000E-04
            typat      1  2  2
              wtk        0.22222    0.22222    0.22222    0.22222    0.11111
           xangst      1.5750000000E+00  9.0932667397E-01  0.0000000000E+00
                       1.5750000000E+00 -9.0932667397E-01 -1.8388847000E+00
                       1.5750000000E+00 -9.0932667397E-01  1.8388847000E+00
            xcart      2.9763186593E+00  1.7183783791E+00  0.0000000000E+00
                       2.9763186593E+00 -1.7183783791E+00 -3.4749884730E+00
                       2.9763186593E+00 -1.7183783791E+00  3.4749884730E+00
             xred      3.3333333333E-01  6.6666666667E-01  0.0000000000E+00
                       6.6666666667E-01  3.3333333333E-01 -9.1944235000E-02
                       6.6666666667E-01  3.3333333333E-01  9.1944235000E-02
            znucl       42.00000   16.00000
 
================================================================================
 
 chkinp: Checking input parameters for consistency, jdtset=   1.
 
================================================================================
== DATASET  1 ==================================================================
-   mpi_nproc: 1, omp_nthreads: -1 (-1 if OMP is not activated)
 

--- !DatasetInfo
iteration_state: {dtset: 1, }
dimensions: {natom: 3, nkpt: 5, mband: 14, nsppol: 1, nspinor: 1, nspden: 1, mpw: 1762, }
cutoff_energies: {ecut:  10.0, pawecutdg:  -1.0, }
electrons: {nelect:   2.60000000E+01, charge:   0.00000000E+00, occopt:   1.00000000E+00, tsmear:   1.00000000E-02, }
meta: {optdriver: 0, ionmov: 2, optcell: 0, iscf: 7, paral_kgb: 0, }
...

 Exchange-correlation functional for the present dataset will be:
  GGA: Perdew-Burke-Ernzerhof functional - ixc=11
 Citation for XC functional:
  J.P.Perdew, K.Burke, M.Ernzerhof, PRL 77, 3865 (1996)
 
 Real(R)+Recip(G) space primitive vectors, cartesian coordinates (Bohr,Bohr^-1):
 R(1)=  2.9763187 -5.1551351  0.0000000  G(1)=  0.1679928 -0.0969907  0.0000000
 R(2)=  2.9763187  5.1551351  0.0000000  G(2)=  0.1679928  0.0969907  0.0000000
 R(3)=  0.0000000  0.0000000 37.7945227  G(3)=  0.0000000  0.0000000  0.0264589
 Unit cell volume ucvol=  1.1597873E+03 bohr^3
 Angles (23,13,12)=  9.00000000E+01  9.00000000E+01  1.20000000E+02 degrees
 
 getcut: wavevector=  0.0000  0.0000  0.0000  ngfft=  18  18 108
         ecut(hartree)=     10.000   => boxcut(ratio)=   2.00738
 
--- Pseudopotential description ------------------------------------------------
- pspini: atom type   1  psp file is ./persudo/Mo.psp8
- pspatm: opening atomic psp file    ./persudo/Mo.psp8
- Mo    ONCVPSP-3.2.3.1  r_core=   1.45541   1.45541   1.35488
- 42.00000  14.00000    170510                znucl, zion, pspdat
    8   11    2    4       600   0.00000      pspcod,pspxc,lmax,lloc,mmax,r2well
    5.99000000000000    3.00000000000000    0.00000000000000   rchrg,fchrg,qchrg
     nproj     2     2     2
     extension_switch     1
  pspatm : epsatm=   15.95693586
         --- l  ekb(1:nproj) -->
             0   13.833287    1.350687
             1    8.015347    1.134034
             2    2.765699    0.969071
 pspatm: atomic psp has been read  and splines computed
 
- pspini: atom type   2  psp file is ./persudo/S.psp8
- pspatm: opening atomic psp file    ./persudo/S.psp8
- S     ONCVPSP-4.0.1  r_core=   1.45687   1.45687   1.45687
- 16.00000   6.00000    220131                znucl, zion, pspdat
    8   11    2    4       600   0.00000      pspcod,pspxc,lmax,lloc,mmax,r2well
    5.99000000000000    6.00000000000000    0.00000000000000   rchrg,fchrg,qchrg
     nproj     2     2     2
     extension_switch     1
  pspatm : epsatm=    9.04179351
         --- l  ekb(1:nproj) -->
             0    6.774234    0.542270
             1    3.022426    0.737017
             2   -5.033160   -1.531047
 pspatm: atomic psp has been read  and splines computed
 
   8.85053595E+02                                ecore*ucvol(ha*bohr**3)
--------------------------------------------------------------------------------
 
_setup2: Arith. and geom. avg. npw (full set) are    1755.111    1755.084
 
================================================================================
 
=== [ionmov= 2] Broyden-Fletcher-Goldfard-Shanno method (forces)            
================================================================================
 
--- Iteration: ( 1/10) Internal Cycle: (1/1)
--------------------------------------------------------------------------------
 
---SELF-CONSISTENT-FIELD CONVERGENCE--------------------------------------------

--- !BeginCycle
iteration_state: {dtset: 1, itime: 1, icycle: 1, }
solver: {iscf: 7, nstep: 10, nline: 4, wfoptalg: 0, }
tolerances: {toldff: 5.00E-05, }
...
 
     iter   Etot(hartree)      deltaE(h)  residm     vres2    diffor    maxfor
 ETOT  1  -90.293860987787    -9.029E+01 4.216E-02 4.909E+03 1.030E-01 1.030E-01
 ETOT  2  -85.706111725742     4.588E+00 7.706E-03 1.920E+04 1.092E+00 9.889E-01
 ETOT  3  -91.525011446588    -5.819E+00 9.744E-02 5.046E+01 9.512E-01 4.146E-02
 ETOT  4  -91.574404681814    -4.939E-02 2.120E-03 1.008E+01 3.358E-02 6.805E-02
 ETOT  5  -91.577042440220    -2.638E-03 6.528E-04 1.208E+01 1.392E-02 7.639E-02
 ETOT  6  -91.577717228756    -6.748E-04 4.421E-04 6.419E+00 6.947E-03 7.028E-02
 ETOT  7  -91.578181634034    -4.644E-04 9.954E-05 2.618E+00 3.374E-03 6.691E-02
 ETOT  8  -91.578301843849    -1.202E-04 9.157E-05 1.363E+00 1.447E-03 6.547E-02
 ETOT  9  -91.578355324926    -5.348E-05 1.791E-05 5.950E-01 9.032E-04 6.459E-02
 ETOT 10  -91.578371910608    -1.659E-05 1.727E-05 2.536E-01 5.707E-04 6.402E-02
 
 Cartesian components of stress tensor (hartree/bohr^3)
  sigma(1 1)=  1.08501086E-03  sigma(3 2)=  3.94420485E-08
  sigma(2 2)=  1.12514550E-03  sigma(3 1)= -4.07659405E-09
  sigma(3 3)=  1.40743843E-03  sigma(2 1)=  1.62334637E-08
 
 
 scprqt:  WARNING -
  nstep=   10 was not enough SCF cycles to converge;
  maximum force difference=  5.707E-04 exceeds toldff=  5.000E-05
 

--- !ResultsGS
iteration_state: {dtset: 1, itime: 1, icycle: 1, }
comment   : Summary of ground state results
lattice_vectors:
- [  2.9763187,  -5.1551351,   0.0000000, ]
- [  2.9763187,   5.1551351,   0.0000000, ]
- [  0.0000000,   0.0000000,  37.7945227, ]
lattice_lengths: [   5.95264,    5.95264,   37.79452, ]
lattice_angles: [ 90.000,  90.000, 120.000, ] # degrees, (23, 13, 12)
lattice_volume:   1.1597873E+03
convergence: {deltae: -1.659E-05, res2:  2.536E-01, residm:  1.727E-05, diffor:  5.707E-04, }
etotal    :  -9.15783719E+01
entropy   :   0.00000000E+00
fermie    :  -6.96200763E-02
cartesian_stress_tensor: # hartree/bohr^3
- [  1.08501086E-03,   1.62334637E-08,  -4.07659405E-09, ]
- [  1.62334637E-08,   1.12514550E-03,   3.94420485E-08, ]
- [ -4.07659405E-09,   3.94420485E-08,   1.40743843E-03, ]
pressure_GPa:  -3.5478E+01
xred      :
- [  3.3333E-01,   6.6667E-01,   0.0000E+00, Mo]
- [  6.6667E-01,   3.3333E-01,  -9.1944E-02,  S]
- [  6.6667E-01,   3.3333E-01,   9.1944E-02,  S]
cartesian_forces: # hartree/bohr
- [  3.05344694E-06,   8.41961531E-03,   7.91830123E-05, ]
- [ -3.41554603E-06,  -4.21644923E-03,   6.39372052E-02, ]
- [  3.62099091E-07,  -4.20316608E-03,  -6.40163882E-02, ]
force_length_stats: {min:   8.41998820E-03, max:   6.41542249E-02, mean:   4.55500993E-02, }
...

 Integrated electronic density in atomic spheres:
 ------------------------------------------------
 Atom  Sphere_radius  Integrated_density
    1        2.00000         10.25271708
    2        2.00000          3.78850553
    3        2.00000          3.78846192
 
---OUTPUT-----------------------------------------------------------------------
 
 Cartesian coordinates (xcart) [bohr]
  2.97631865929489E+00  1.71837837912920E+00  0.00000000000000E+00
  2.97631865929489E+00 -1.71837837912920E+00 -3.47498847295358E+00
  2.97631865929489E+00 -1.71837837912920E+00  3.47498847295358E+00
 Reduced coordinates (xred)
  3.33333333333333E-01  6.66666666666667E-01  0.00000000000000E+00
  6.66666666666667E-01  3.33333333333333E-01 -9.19442350000000E-02
  6.66666666666667E-01  3.33333333333333E-01  9.19442350000000E-02
 Cartesian forces (fcart) [Ha/bohr]; max,rms= 6.40164E-02 3.03542E-02 (free atoms)
  3.05344693894589E-06  8.41961531462100E-03  7.91830122791961E-05
 -3.41554603041312E-06 -4.21644923194994E-03  6.39372052103921E-02
  3.62099091467226E-07 -4.20316608267106E-03 -6.40163882226713E-02
 Gradient of E wrt nuclear positions in reduced coordinates (gred)
  4.33951667205900E-02 -4.34133427827891E-02 -2.99268415169203E-03
 -2.17261998372541E-02  2.17465313440181E-02 -2.41647615099500E+00
 -2.16689668833359E-02  2.16668114387710E-02  2.41946883514669E+00
 Total energy (etotal) [Ha]= -9.15783719106084E+01
 
--- Iteration: ( 2/10) Internal Cycle: (1/1)
--------------------------------------------------------------------------------
 
---SELF-CONSISTENT-FIELD CONVERGENCE--------------------------------------------

--- !BeginCycle
iteration_state: {dtset: 1, itime: 2, icycle: 1, }
solver: {iscf: 7, nstep: 10, nline: 4, wfoptalg: 0, }
tolerances: {toldff: 5.00E-05, }
...
 
     iter   Etot(hartree)      deltaE(h)  residm     vres2    diffor    maxfor
 ETOT  1  -91.575682096905    -9.158E+01 1.465E-05 6.741E+01 2.753E-02 9.147E-02
 ETOT  2  -91.561599855418     1.408E-02 9.128E-06 6.524E+01 7.169E-02 1.993E-02
 ETOT  3  -91.570604735838    -9.005E-03 2.253E-04 6.414E+01 7.067E-02 9.044E-02
 ETOT  4  -91.586092224063    -1.549E-02 3.957E-05 1.842E+00 3.193E-02 5.874E-02
 ETOT  5  -91.586131078263    -3.885E-05 2.389E-06 1.547E+00 1.318E-04 5.882E-02
 ETOT  6  -91.586143994509    -1.292E-05 2.683E-07 1.322E+00 6.101E-04 5.821E-02
 ETOT  7  -91.586147619122    -3.625E-06 6.219E-08 1.049E+00 4.562E-05 5.819E-02
 ETOT  8  -91.586160361866    -1.274E-05 3.104E-08 7.746E-01 4.821E-04 5.771E-02
 ETOT  9  -91.586171721738    -1.136E-05 4.834E-08 4.437E-01 8.486E-04 5.688E-02
 ETOT 10  -91.586171983320    -2.616E-07 1.173E-08 3.019E-01 1.999E-04 5.668E-02
 
 Cartesian components of stress tensor (hartree/bohr^3)
  sigma(1 1)=  1.07667944E-03  sigma(3 2)=  2.38116151E-09
  sigma(2 2)=  1.11645185E-03  sigma(3 1)= -1.67573814E-10
  sigma(3 3)=  1.37017277E-03  sigma(2 1)=  1.43742228E-09
 
 
 scprqt:  WARNING -
  nstep=   10 was not enough SCF cycles to converge;
  maximum force difference=  1.999E-04 exceeds toldff=  5.000E-05
 

--- !ResultsGS
iteration_state: {dtset: 1, itime: 2, icycle: 1, }
comment   : Summary of ground state results
lattice_vectors:
- [  2.9763187,  -5.1551351,   0.0000000, ]
- [  2.9763187,   5.1551351,   0.0000000, ]
- [  0.0000000,   0.0000000,  37.7945227, ]
lattice_lengths: [   5.95264,    5.95264,   37.79452, ]
lattice_angles: [ 90.000,  90.000, 120.000, ] # degrees, (23, 13, 12)
lattice_volume:   1.1597873E+03
convergence: {deltae: -2.616E-07, res2:  3.019E-01, residm:  1.173E-08, diffor:  1.999E-04, }
etotal    :  -9.15861720E+01
entropy   :   0.00000000E+00
fermie    :  -7.15666729E-02
cartesian_stress_tensor: # hartree/bohr^3
- [  1.07667944E-03,   1.43742228E-09,  -1.67573814E-10, ]
- [  1.43742228E-09,   1.11645185E-03,   2.38116151E-09, ]
- [ -1.67573814E-10,   2.38116151E-09,   1.37017277E-03, ]
pressure_GPa:  -3.4945E+01
xred      :
- [  3.3252E-01,   6.6748E-01,   2.0951E-06, Mo]
- [  6.6708E-01,   3.3292E-01,  -9.0253E-02,  S]
- [  6.6707E-01,   3.3293E-01,   9.0250E-02,  S]
cartesian_forces: # hartree/bohr
- [ -1.04903093E-06,   7.01769709E-03,  -2.89117478E-05, ]
- [  1.33946694E-06,  -3.50791316E-03,   5.66784161E-02, ]
- [ -2.90436004E-07,  -3.50978393E-03,  -5.66495044E-02, ]
force_length_stats: {min:   7.01775672E-03, max:   5.67868674E-02, mean:   4.01875836E-02, }
...

 Integrated electronic density in atomic spheres:
 ------------------------------------------------
 Atom  Sphere_radius  Integrated_density
    1        2.00000         10.25925675
    2        2.00000          3.78255146
    3        2.00000          3.78256189
 
---OUTPUT-----------------------------------------------------------------------
 
 Cartesian coordinates (xcart) [bohr]
  2.97632171274183E+00  1.72679799444382E+00  7.91830122791961E-05
  2.97631524374886E+00 -1.72259482836115E+00 -3.41105126774318E+00
  2.97631902139398E+00 -1.72258154521187E+00  3.41097208473090E+00
 Reduced coordinates (xred)
  3.32517222177647E-01  6.67483803736339E-01  2.09509227028264E-06
  6.67075049106746E-01  3.32923803319213E-01 -9.02525294110859E-02
  6.67074395382274E-01  3.32925726277781E-01  9.02504343188156E-02
 Cartesian forces (fcart) [Ha/bohr]; max,rms= 5.66784E-02 2.68649E-02 (free atoms)
 -1.04903093325820E-06  7.01769708926409E-03 -2.89117477846363E-05
  1.33946693694073E-06 -3.50791315674895E-03  5.66784161485427E-02
 -2.90436003682534E-07 -3.50978393251515E-03 -5.66495044007581E-02
 Gradient of E wrt nuclear positions in reduced coordinates (gred)
  3.61802990987489E-02 -3.61740545980672E-02  1.09270570672052E-03
 -1.80877530536987E-02  1.80797796928228E-02 -2.14213368332938E+00
 -1.80925460450502E-02  1.80942749052444E-02  2.14104097762265E+00
 Total energy (etotal) [Ha]= -9.15861719833196E+01
 
 Difference of energy with previous step (new-old):
           Absolute (Ha)=-7.80007E-03
           Relative     =-8.51701E-05
 
--- Iteration: ( 3/10) Internal Cycle: (1/1)
--------------------------------------------------------------------------------
 
---SELF-CONSISTENT-FIELD CONVERGENCE--------------------------------------------

--- !BeginCycle
iteration_state: {dtset: 1, itime: 3, icycle: 1, }
solver: {iscf: 7, nstep: 10, nline: 4, wfoptalg: 0, }
tolerances: {toldff: 5.00E-05, }
...
 
     iter   Etot(hartree)      deltaE(h)  residm     vres2    diffor    maxfor
 ETOT  1  -91.053574912135    -9.105E+01 3.068E-03 2.740E+03 2.323E-01 2.890E-01
 ETOT  2  -91.151415678300    -9.784E-02 5.148E-04 7.865E+02 4.466E-01 1.576E-01
 ETOT  3  -91.586891448534    -4.355E-01 3.380E-03 1.949E+02 1.740E-01 1.997E-02
 ETOT  4  -91.606758594136    -1.987E-02 2.135E-04 7.068E+01 2.512E-02 1.338E-02
 ETOT  5  -91.607306656599    -5.481E-04 5.194E-05 5.878E+01 2.060E-03 1.317E-02
 ETOT  6  -91.607769469836    -4.628E-04 2.678E-05 4.624E+01 2.903E-03 1.372E-02
 ETOT  7  -91.608014612121    -2.451E-04 1.823E-05 3.780E+01 1.634E-03 1.535E-02
 ETOT  8  -91.608143227895    -1.286E-04 4.982E-06 3.068E+01 9.661E-04 1.632E-02
 ETOT  9  -91.608256523651    -1.133E-04 4.539E-06 2.309E+01 1.229E-03 1.755E-02
 ETOT 10  -91.608275890995    -1.937E-05 1.509E-06 2.055E+01 1.929E-04 1.774E-02
 
 Cartesian components of stress tensor (hartree/bohr^3)
  sigma(1 1)=  9.38658055E-04  sigma(3 2)=  1.43517252E-08
  sigma(2 2)=  1.00409774E-03  sigma(3 1)= -3.29997265E-09
  sigma(3 3)=  8.97102885E-04  sigma(2 1)=  1.83456927E-09
 
 
 scprqt:  WARNING -
  nstep=   10 was not enough SCF cycles to converge;
  maximum force difference=  1.929E-04 exceeds toldff=  5.000E-05
 

--- !ResultsGS
iteration_state: {dtset: 1, itime: 3, icycle: 1, }
comment   : Summary of ground state results
lattice_vectors:
- [  2.9763187,  -5.1551351,   0.0000000, ]
- [  2.9763187,   5.1551351,   0.0000000, ]
- [  0.0000000,   0.0000000,  37.7945227, ]
lattice_lengths: [   5.95264,    5.95264,   37.79452, ]
lattice_angles: [ 90.000,  90.000, 120.000, ] # degrees, (23, 13, 12)
lattice_volume:   1.1597873E+03
convergence: {deltae: -1.937E-05, res2:  2.055E+01, residm:  1.509E-06, diffor:  1.929E-04, }
etotal    :  -9.16082759E+01
entropy   :   0.00000000E+00
fermie    :  -9.55602120E-02
cartesian_stress_tensor: # hartree/bohr^3
- [  9.38658055E-04,   1.83456927E-09,  -3.29997265E-09, ]
- [  1.83456927E-09,   1.00409774E-03,   1.43517252E-08, ]
- [ -3.29997265E-09,   1.43517252E-08,   8.97102885E-04, ]
pressure_GPa:  -2.7851E+01
xred      :
- [  3.2659E-01,   6.7340E-01,  -4.5525E-06, Mo]
- [  6.7004E-01,   3.2997E-01,  -7.7205E-02,  S]
- [  6.7004E-01,   3.2996E-01,   7.7209E-02,  S]
cartesian_forces: # hartree/bohr
- [  2.49281515E-06,  -1.32737656E-02,   8.38036738E-05, ]
- [ -2.07199458E-06,   6.63971301E-03,  -1.77415802E-02, ]
- [ -4.20820574E-07,   6.63405262E-03,   1.76577765E-02, ]
force_length_stats: {min:   1.32740304E-02, max:   1.89433223E-02, mean:   1.70267397E-02, }
...

 Integrated electronic density in atomic spheres:
 ------------------------------------------------
 Atom  Sphere_radius  Integrated_density
    1        2.00000         10.45825923
    2        2.00000          3.95159172
    3        2.00000          3.95147001
 
---OUTPUT-----------------------------------------------------------------------
 
 Cartesian coordinates (xcart) [bohr]
  2.97631259715756E+00  1.78785764801675E+00 -1.72060090917852E-04
  2.97632688441154E+00 -1.75311653782410E+00 -2.91791425479299E+00
  2.97631649631557E+00 -1.75311948932185E+00  2.91808631488391E+00
 Reduced coordinates (xred)
  3.26593474244729E-01  6.73404488964851E-01 -4.55251393108254E-06
  6.70037325639581E-01  3.29965437880591E-01 -7.72046860128162E-02
  6.70035866782356E-01  3.29963406487891E-01  7.72092385267473E-02
 Cartesian forces (fcart) [Ha/bohr]; max,rms= 1.77416E-02 9.94908E-03 (free atoms)
  2.49281515142241E-06 -1.32737656314710E-02  8.38036738413708E-05
 -2.07199457781555E-06  6.63971301222946E-03 -1.77415801673694E-02
 -4.20820573606856E-07  6.63405261924154E-03  1.76577764935280E-02
 Gradient of E wrt nuclear positions in reduced coordinates (gred)
 -6.84354750244935E-02  6.84206361999948E-02 -3.16731984979727E-03
  3.42347847676377E-02 -3.42224509353899E-02  6.70534553619272E-01
  3.42006902568558E-02 -3.41981852646049E-02 -6.67367233769475E-01
 Total energy (etotal) [Ha]= -9.16082758909946E+01
 
 Difference of energy with previous step (new-old):
           Absolute (Ha)=-2.21039E-02
           Relative     =-2.41316E-04
 
--- Iteration: ( 4/10) Internal Cycle: (1/1)
--------------------------------------------------------------------------------
 
---SELF-CONSISTENT-FIELD CONVERGENCE--------------------------------------------

--- !BeginCycle
iteration_state: {dtset: 1, itime: 4, icycle: 1, }
solver: {iscf: 7, nstep: 10, nline: 4, wfoptalg: 0, }
tolerances: {toldff: 5.00E-05, }
...
 
     iter   Etot(hartree)      deltaE(h)  residm     vres2    diffor    maxfor
 ETOT  1  -91.553612340248    -9.155E+01 2.026E-04 3.191E+02 8.170E-02 9.944E-02
 ETOT  2  -91.557517865612    -3.906E-03 4.677E-05 9.992E+01 1.553E-01 5.587E-02
 ETOT  3  -91.593767130120    -3.625E-02 5.482E-04 7.464E+01 8.535E-02 2.949E-02
 ETOT  4  -91.610067436217    -1.630E-02 5.892E-05 9.440E+00 2.750E-02 3.721E-03
 ETOT  5  -91.610335689668    -2.683E-04 7.560E-06 6.554E+00 1.236E-03 4.087E-03
 ETOT  6  -91.610477223421    -1.415E-04 1.001E-06 4.212E+00 2.205E-03 3.985E-03
 ETOT  7  -91.610523483850    -4.626E-05 3.992E-07 2.990E+00 7.713E-04 4.138E-03
 ETOT  8  -91.610539136420    -1.565E-05 3.606E-07 2.313E+00 4.709E-04 4.129E-03
 ETOT  9  -91.610550153698    -1.102E-05 4.538E-07 1.620E+00 3.727E-04 4.163E-03
 ETOT 10  -91.610554045998    -3.892E-06 5.124E-07 1.227E+00 1.988E-04 4.165E-03
 
 Cartesian components of stress tensor (hartree/bohr^3)
  sigma(1 1)=  9.85962066E-04  sigma(3 2)=  2.64876306E-09
  sigma(2 2)=  1.03638963E-03  sigma(3 1)= -1.55402372E-09
  sigma(3 3)=  1.05821500E-03  sigma(2 1)=  1.18325720E-10
 
 
 scprqt:  WARNING -
  nstep=   10 was not enough SCF cycles to converge;
  maximum force difference=  1.988E-04 exceeds toldff=  5.000E-05
 

--- !ResultsGS
iteration_state: {dtset: 1, itime: 4, icycle: 1, }
comment   : Summary of ground state results
lattice_vectors:
- [  2.9763187,  -5.1551351,   0.0000000, ]
- [  2.9763187,   5.1551351,   0.0000000, ]
- [  0.0000000,   0.0000000,  37.7945227, ]
lattice_lengths: [   5.95264,    5.95264,   37.79452, ]
lattice_angles: [ 90.000,  90.000, 120.000, ] # degrees, (23, 13, 12)
lattice_volume:   1.1597873E+03
convergence: {deltae: -3.892E-06, res2:  1.227E+00, residm:  5.124E-07, diffor:  1.988E-04, }
etotal    :  -9.16105540E+01
entropy   :   0.00000000E+00
fermie    :  -6.88931330E-02
cartesian_stress_tensor: # hartree/bohr^3
- [  9.85962066E-04,   1.18325720E-10,  -1.55402372E-09, ]
- [  1.18325720E-10,   1.03638963E-03,   2.64876306E-09, ]
- [ -1.55402372E-09,   2.64876306E-09,   1.05821500E-03, ]
pressure_GPa:  -3.0211E+01
xred      :
- [  3.2885E-01,   6.7115E-01,  -1.4204E-06, Mo]
- [  6.6891E-01,   3.3109E-01,  -8.0401E-02,  S]
- [  6.6891E-01,   3.3109E-01,   8.0403E-02,  S]
cartesian_forces: # hartree/bohr
- [  3.42389897E-07,  -4.16487669E-03,   2.75322043E-05, ]
- [ -2.11552806E-09,   2.08281715E-03,   3.26191665E-03, ]
- [ -3.40274369E-07,   2.08205954E-03,  -3.28944886E-03, ]
force_length_stats: {min:   3.87017151E-03, max:   4.16496771E-03, mean:   3.97604627E-03, }
...

 Integrated electronic density in atomic spheres:
 ------------------------------------------------
 Atom  Sphere_radius  Integrated_density
    1        2.00000         10.41067898
    2        2.00000          3.90566179
    3        2.00000          3.90562682
 
---OUTPUT-----------------------------------------------------------------------
 
 Cartesian coordinates (xcart) [bohr]
  2.97631648142651E+00  1.76457497567175E+00 -5.36817339631118E-05
  2.97632276228145E+00 -1.74147488643935E+00 -3.03872718892991E+00
  2.97631673417671E+00 -1.74147846836161E+00  3.03878087066387E+00
 Reduced coordinates (xred)
  3.28852328714640E-01  6.71146939553099E-01 -1.42035750654352E-06
  6.68907501608487E-01  3.31093876935624E-01 -8.04012585752233E-02
  6.68906836343539E-01  3.31092516844611E-01  8.04026789327299E-02
 Cartesian forces (fcart) [Ha/bohr]; max,rms= 4.16488E-03 2.29687E-03 (free atoms)
  3.42389896899597E-07 -4.16487669261205E-03  2.75322042695733E-05
 -2.11552806356495E-09  2.08281715330834E-03  3.26191665453625E-03
 -3.40274368836032E-07  2.08205953930370E-03 -3.28944885880582E-03
 Gradient of E wrt nuclear positions in reduced coordinates (gred)
 -2.14715212424099E-02  2.14694831195321E-02 -1.04056651808317E-03
  1.07372101882591E-02 -1.07371975952878E-02 -1.23282582907441E-01
  1.07343110541508E-02 -1.07322855242443E-02  1.24323149425524E-01
 Total energy (etotal) [Ha]= -9.16105540459976E+01
 
 Difference of energy with previous step (new-old):
           Absolute (Ha)=-2.27816E-03
           Relative     =-2.48681E-05
 
--- Iteration: ( 5/10) Internal Cycle: (1/1)
--------------------------------------------------------------------------------
 
---SELF-CONSISTENT-FIELD CONVERGENCE--------------------------------------------

--- !BeginCycle
iteration_state: {dtset: 1, itime: 5, icycle: 1, }
solver: {iscf: 7, nstep: 10, nline: 4, wfoptalg: 0, }
tolerances: {toldff: 5.00E-05, }
...
 
     iter   Etot(hartree)      deltaE(h)  residm     vres2    diffor    maxfor
 ETOT  1  -91.609667736729    -9.161E+01 4.628E-06 8.918E+00 1.040E-02 1.369E-02
 ETOT  2  -91.609746684739    -7.895E-05 1.360E-06 1.388E+00 1.892E-02 5.247E-03
 ETOT  3  -91.608637359113     1.109E-03 2.730E-05 7.165E+00 1.731E-02 1.207E-02
 ETOT  4  -91.610634705323    -1.997E-03 1.071E-05 3.580E-01 1.030E-02 4.090E-03
 ETOT  5  -91.610641393641    -6.688E-06 5.814E-06 2.843E-01 1.874E-04 3.903E-03
 ETOT  6  -91.610645549219    -4.156E-06 4.987E-06 1.983E-01 4.215E-04 3.868E-03
 ETOT  7  -91.610647640296    -2.091E-06 1.087E-05 1.358E-01 1.467E-04 3.860E-03
 ETOT  8  -91.610648405871    -7.656E-07 9.020E-06 1.046E-01 1.345E-04 3.862E-03
 ETOT  9  -91.610648775326    -3.695E-07 2.067E-05 7.494E-02 5.108E-05 3.875E-03
 ETOT 10  -91.610648856060    -8.073E-08 1.760E-05 6.128E-02 1.981E-05 3.871E-03
 
 Cartesian components of stress tensor (hartree/bohr^3)
  sigma(1 1)=  9.81168303E-04  sigma(3 2)=  7.55842371E-10
  sigma(2 2)=  1.03192889E-03  sigma(3 1)= -1.72115462E-09
  sigma(3 3)=  1.03520052E-03  sigma(2 1)= -1.01512272E-10
 

--- !ResultsGS
iteration_state: {dtset: 1, itime: 5, icycle: 1, }
comment   : Summary of ground state results
lattice_vectors:
- [  2.9763187,  -5.1551351,   0.0000000, ]
- [  2.9763187,   5.1551351,   0.0000000, ]
- [  0.0000000,   0.0000000,  37.7945227, ]
lattice_lengths: [   5.95264,    5.95264,   37.79452, ]
lattice_angles: [ 90.000,  90.000, 120.000, ] # degrees, (23, 13, 12)
lattice_volume:   1.1597873E+03
convergence: {deltae: -8.073E-08, res2:  6.128E-02, residm:  1.760E-05, diffor:  1.981E-05, }
etotal    :  -9.16106489E+01
entropy   :   0.00000000E+00
fermie    :  -7.58704978E-02
cartesian_stress_tensor: # hartree/bohr^3
- [  9.81168303E-04,  -1.01512272E-10,  -1.72115462E-09, ]
- [ -1.01512272E-10,   1.03192889E-03,   7.55842371E-10, ]
- [ -1.72115462E-09,   7.55842371E-10,   1.03520052E-03, ]
pressure_GPa:  -2.9895E+01
xred      :
- [  3.2909E-01,   6.7091E-01,  -8.6986E-07, Mo]
- [  6.6879E-01,   3.3121E-01,  -7.9973E-02,  S]
- [  6.6879E-01,   3.3121E-01,   7.9974E-02,  S]
cartesian_forces: # hartree/bohr
- [  3.65463590E-07,  -3.87149106E-03,   1.44146876E-05, ]
- [ -5.14937315E-07,   1.93584874E-03,   9.97474034E-04, ]
- [  1.49473725E-07,   1.93564232E-03,  -1.01188872E-03, ]
force_length_stats: {min:   2.17772015E-03, max:   3.87151791E-03, mean:   2.74447175E-03, }
...

 Integrated electronic density in atomic spheres:
 ------------------------------------------------
 Atom  Sphere_radius  Integrated_density
    1        2.00000         10.41635724
    2        2.00000          3.92954114
    3        2.00000          3.92952173
 
---OUTPUT-----------------------------------------------------------------------
 
 Cartesian coordinates (xcart) [bohr]
  2.97631663695873E+00  1.76211256528501E+00 -3.28760774125591E-05
  2.97632299290414E+00 -1.74024302636415E+00 -3.02254503775529E+00
  2.97631634802180E+00 -1.74024791805006E+00  3.02257791383270E+00
 Reduced coordinates (xred)
  3.29091185670940E-01  6.70908134853376E-01 -8.69863543728340E-07
  6.68788061419999E-01  3.31213394609998E-01 -7.99730972958451E-02
  6.68787419575727E-01  3.31211803869960E-01  7.99739671593888E-02
 Cartesian forces (fcart) [Ha/bohr]; max,rms= 3.87149E-03 1.64997E-03 (free atoms)
  3.65463589987290E-07 -3.87149106247301E-03  1.44146876301570E-05
 -5.14937314955828E-07  1.93584873901034E-03  9.97474033506032E-04
  1.49473724968538E-07  1.93564232346266E-03 -1.01188872113619E-03
 Gradient of E wrt nuclear positions in reduced coordinates (gred)
 -1.99591473463388E-02  1.99569718741345E-02 -5.44796238241823E-04
  9.98109447267859E-03 -9.97802923760085E-03 -3.76990549598240E-02
  9.97805287366026E-03 -9.97894263653366E-03  3.82438511980658E-02
 Total energy (etotal) [Ha]= -9.16106488560604E+01
 
 Difference of energy with previous step (new-old):
           Absolute (Ha)=-9.48101E-05
           Relative     =-1.03492E-06
 
--- Iteration: ( 6/10) Internal Cycle: (1/1)
--------------------------------------------------------------------------------
 
---SELF-CONSISTENT-FIELD CONVERGENCE--------------------------------------------

--- !BeginCycle
iteration_state: {dtset: 1, itime: 6, icycle: 1, }
solver: {iscf: 7, nstep: 10, nline: 4, wfoptalg: 0, }
tolerances: {toldff: 5.00E-05, }
...
 
     iter   Etot(hartree)      deltaE(h)  residm     vres2    diffor    maxfor
 ETOT  1  -91.610375440490    -9.161E+01 8.210E-05 3.509E+00 4.203E-03 5.712E-03
 ETOT  2  -91.610252602811     1.228E-04 1.267E-04 7.898E-01 1.027E-02 5.059E-03
 ETOT  3  -91.609654276430     5.983E-04 1.020E-04 3.128E+00 1.173E-02 6.671E-03
 ETOT  4  -91.610675987547    -1.022E-03 2.065E-04 5.738E-02 7.187E-03 2.624E-03
 ETOT  5  -91.610678147350    -2.160E-06 1.578E-04 4.442E-02 1.933E-04 2.431E-03
 ETOT  6  -91.610679052394    -9.050E-07 3.082E-04 2.891E-02 2.329E-04 2.389E-03
 ETOT  7  -91.610679270642    -2.182E-07 2.293E-04 2.213E-02 1.034E-05 2.382E-03
 ETOT  8  -91.610679493325    -2.227E-07 4.368E-04 1.517E-02 7.038E-05 2.393E-03
 ETOT  9  -91.610679586691    -9.337E-08 2.963E-04 1.051E-02 4.619E-05 2.402E-03
 ETOT 10  -91.610679601675    -1.498E-08 5.326E-04 8.824E-03 3.637E-06 2.404E-03
 
 At SCF step   10, forces are converged : 
  for the second time, max diff in force=  3.637E-06 < toldff=  5.000E-05
 
 Cartesian components of stress tensor (hartree/bohr^3)
  sigma(1 1)=  9.78133204E-04  sigma(3 2)= -9.82921272E-10
  sigma(2 2)=  1.02800574E-03  sigma(3 1)= -1.54895816E-09
  sigma(3 3)=  1.02666446E-03  sigma(2 1)= -1.10643227E-09
 

--- !ResultsGS
iteration_state: {dtset: 1, itime: 6, icycle: 1, }
comment   : Summary of ground state results
lattice_vectors:
- [  2.9763187,  -5.1551351,   0.0000000, ]
- [  2.9763187,   5.1551351,   0.0000000, ]
- [  0.0000000,   0.0000000,  37.7945227, ]
lattice_lengths: [   5.95264,    5.95264,   37.79452, ]
lattice_angles: [ 90.000,  90.000, 120.000, ] # degrees, (23, 13, 12)
lattice_volume:   1.1597873E+03
convergence: {deltae: -1.498E-08, res2:  8.824E-03, residm:  5.326E-04, diffor:  3.637E-06, }
etotal    :  -9.16106796E+01
entropy   :   0.00000000E+00
fermie    :  -7.48040857E-02
cartesian_stress_tensor: # hartree/bohr^3
- [  9.78133204E-04,  -1.10643227E-09,  -1.54895816E-09, ]
- [ -1.10643227E-09,   1.02800574E-03,  -9.82921272E-10, ]
- [ -1.54895816E-09,  -9.82921272E-10,   1.02666446E-03, ]
pressure_GPa:  -2.9743E+01
xred      :
- [  3.2971E-01,   6.7029E-01,  -1.5532E-07, Mo]
- [  6.6848E-01,   3.3152E-01,  -7.9717E-02,  S]
- [  6.6848E-01,   3.3152E-01,   7.9717E-02,  S]
cartesian_forces: # hartree/bohr
- [  3.76311181E-07,  -2.40410141E-03,   3.58645637E-06, ]
- [ -4.08880619E-07,   1.20187199E-03,  -7.77907505E-04, ]
- [  3.25694389E-08,   1.20222942E-03,   7.74321049E-04, ]
force_length_stats: {min:   1.43001002E-03, max:   2.40410411E-03, mean:   1.75525643E-03, }
...

 Integrated electronic density in atomic spheres:
 ------------------------------------------------
 Atom  Sphere_radius  Integrated_density
    1        2.00000         10.41932857
    2        2.00000          3.94393348
    3        2.00000          3.94392884
 
---OUTPUT-----------------------------------------------------------------------
 
 Cartesian coordinates (xcart) [bohr]
  2.97631723672784E+00  1.75572405915967E+00 -5.87038052819206E-06
  2.97632225626570E+00 -1.73704836444685E+00 -3.01286568222022E+00
  2.97631648489112E+00 -1.73705407384203E+00  3.01287155260075E+00
 Reduced coordinates (xred)
  3.29710911903679E-01  6.70288610134379E-01 -1.55323579063488E-07
  6.68478085277054E-01  3.31523123253089E-01 -7.97169925786951E-02
  6.68477669485933E-01  3.31521599945866E-01  7.97171479022742E-02
 Cartesian forces (fcart) [Ha/bohr]; max,rms= 2.40410E-03 1.04745E-03 (free atoms)
  3.76311180552673E-07 -2.40410140655114E-03  3.58645636814773E-06
 -4.08880619422426E-07  1.20187198817560E-03 -7.77907504944730E-04
  3.25694388697533E-08  1.20222941837554E-03  7.74321048576583E-04
 Gradient of E wrt nuclear positions in reduced coordinates (gred)
 -1.23945876567431E-02  1.23923476127664E-02 -1.35548406466858E-04
  6.19702947590295E-03 -6.19459555786893E-03  2.94006428212385E-02
  6.19755818084016E-03 -6.19775205489742E-03 -2.92650944147716E-02
 Total energy (etotal) [Ha]= -9.16106796016754E+01
 
 Difference of energy with previous step (new-old):
           Absolute (Ha)=-3.07456E-05
           Relative     =-3.35612E-07
 
--- Iteration: ( 7/10) Internal Cycle: (1/1)
--------------------------------------------------------------------------------
 
---SELF-CONSISTENT-FIELD CONVERGENCE--------------------------------------------

--- !BeginCycle
iteration_state: {dtset: 1, itime: 7, icycle: 1, }
solver: {iscf: 7, nstep: 10, nline: 4, wfoptalg: 0, }
tolerances: {toldff: 5.00E-05, }
...
 
     iter   Etot(hartree)      deltaE(h)  residm     vres2    diffor    maxfor
 ETOT  1  -91.610669728082    -9.161E+01 5.799E-04 8.668E-01 1.629E-03 4.033E-03
 ETOT  2  -91.610653327817     1.640E-05 4.760E-04 1.150E-01 3.502E-03 1.806E-03
 ETOT  3  -91.610590603517     6.272E-05 2.391E-04 2.470E-01 3.342E-03 1.537E-03
 ETOT  4  -91.610694753874    -1.042E-04 3.445E-04 8.873E-04 2.283E-03 1.111E-03
 ETOT  5  -91.610694899407    -1.455E-07 1.635E-04 5.861E-04 1.414E-04 1.029E-03
 ETOT  6  -91.610694900538    -1.130E-09 2.293E-04 5.592E-04 2.000E-05 1.009E-03
 ETOT  7  -91.610694922670    -2.213E-08 1.039E-04 3.188E-04 3.420E-05 1.010E-03
 
 At SCF step    7, forces are converged : 
  for the second time, max diff in force=  3.420E-05 < toldff=  5.000E-05
 
 Cartesian components of stress tensor (hartree/bohr^3)
  sigma(1 1)=  9.78889631E-04  sigma(3 2)= -1.73804335E-09
  sigma(2 2)=  1.02753026E-03  sigma(3 1)= -1.35224513E-09
  sigma(3 3)=  1.02883454E-03  sigma(2 1)=  1.46905547E-09
 

--- !ResultsGS
iteration_state: {dtset: 1, itime: 7, icycle: 1, }
comment   : Summary of ground state results
lattice_vectors:
- [  2.9763187,  -5.1551351,   0.0000000, ]
- [  2.9763187,   5.1551351,   0.0000000, ]
- [  0.0000000,   0.0000000,  37.7945227, ]
lattice_lengths: [   5.95264,    5.95264,   37.79452, ]
lattice_angles: [ 90.000,  90.000, 120.000, ] # degrees, (23, 13, 12)
lattice_volume:   1.1597873E+03
convergence: {deltae: -2.213E-08, res2:  3.188E-04, residm:  1.039E-04, diffor:  3.420E-05, }
etotal    :  -9.16106949E+01
entropy   :   0.00000000E+00
fermie    :  -7.43443520E-02
cartesian_stress_tensor: # hartree/bohr^3
- [  9.78889631E-04,   1.46905547E-09,  -1.35224513E-09, ]
- [  1.46905547E-09,   1.02753026E-03,  -1.73804335E-09, ]
- [ -1.35224513E-09,  -1.73804335E-09,   1.02883454E-03, ]
pressure_GPa:  -2.9767E+01
xred      :
- [  3.3023E-01,   6.6977E-01,   3.1360E-07, Mo]
- [  6.6822E-01,   3.3178E-01,  -7.9746E-02,  S]
- [  6.6822E-01,   3.3178E-01,   7.9746E-02,  S]
cartesian_forces: # hartree/bohr
- [  4.55112929E-07,  -1.00993136E-03,  -4.43534334E-06, ]
- [ -4.63343444E-07,   5.04675400E-04,  -5.84729681E-04, ]
- [  8.23051573E-09,   5.05255957E-04,   5.89165024E-04, ]
force_length_stats: {min:   7.72402921E-04, max:   1.00994120E-03, mean:   8.52829266E-04, }
...

 Integrated electronic density in atomic spheres:
 ------------------------------------------------
 Atom  Sphere_radius  Integrated_density
    1        2.00000         10.40410455
    2        2.00000          3.93387660
    3        2.00000          3.93702364
 
---OUTPUT-----------------------------------------------------------------------
 
 Cartesian coordinates (xcart) [bohr]
  2.97631793462282E+00  1.75033988810591E+00  1.18522135984090E-05
  2.97632155935599E+00 -1.73435638756488E+00 -3.01395798177027E+00
  2.97631648390586E+00 -1.73436187967023E+00  3.01394612955667E+00
 Reduced coordinates (xred)
  3.30233243491483E-01  6.69766513029187E-01  3.13596065380927E-07
  6.68216871565558E-01  3.31784102813005E-01 -7.97458935800370E-02
  6.68216551609625E-01  3.31782717491142E-01  7.97455799839716E-02
 Cartesian forces (fcart) [Ha/bohr]; max,rms= 1.00993E-03 4.96542E-04 (free atoms)
  4.55112928654392E-07 -1.00993135696397E-03 -4.43534333596153E-06
 -4.63343444386671E-07  5.04675399530925E-04 -5.84729680587855E-04
  8.23051573227949E-09  5.05255957433044E-04  5.89165023923816E-04
 Gradient of E wrt nuclear positions in reduced coordinates (gred)
 -5.20768718573615E-03  5.20497806353287E-03  1.67631684205734E-04
  2.60304894283619E-03 -2.60029082735781E-03  2.20995791616149E-02
  2.60463824289996E-03 -2.60468723617505E-03 -2.22672108458206E-02
 Total energy (etotal) [Ha]= -9.16106949226696E+01
 
 Difference of energy with previous step (new-old):
           Absolute (Ha)=-1.53210E-05
           Relative     =-1.67240E-07
 
--- Iteration: ( 8/10) Internal Cycle: (1/1)
--------------------------------------------------------------------------------
 
---SELF-CONSISTENT-FIELD CONVERGENCE--------------------------------------------

--- !BeginCycle
iteration_state: {dtset: 1, itime: 8, icycle: 1, }
solver: {iscf: 7, nstep: 10, nline: 4, wfoptalg: 0, }
tolerances: {toldff: 5.00E-05, }
...
 
     iter   Etot(hartree)      deltaE(h)  residm     vres2    diffor    maxfor
 ETOT  1  -91.610677630643    -9.161E+01 7.594E-05 1.208E+00 1.569E-03 2.254E-03
 ETOT  2  -91.610698492563    -2.086E-05 4.328E-05 3.759E-03 2.660E-03 4.058E-04
 ETOT  3  -91.610698807554    -3.150E-07 4.541E-05 8.588E-04 4.880E-04 8.220E-05
 ETOT  4  -91.610698939677    -1.321E-07 2.524E-05 3.260E-03 2.075E-04 1.447E-04
 ETOT  5  -91.610699430755    -4.911E-07 2.632E-05 7.317E-04 1.489E-04 4.349E-05
 ETOT  6  -91.610699438221    -7.466E-09 1.461E-05 5.465E-04 9.432E-06 3.781E-05
 ETOT  7  -91.610699441697    -3.476E-09 1.517E-05 4.336E-04 7.908E-06 3.742E-05
 
 At SCF step    7, forces are converged : 
  for the second time, max diff in force=  7.908E-06 < toldff=  5.000E-05
 
 Cartesian components of stress tensor (hartree/bohr^3)
  sigma(1 1)=  9.80253005E-04  sigma(3 2)= -1.55899940E-09
  sigma(2 2)=  1.02791974E-03  sigma(3 1)= -1.06643181E-09
  sigma(3 3)=  1.03211721E-03  sigma(2 1)= -1.30309749E-10
 

--- !ResultsGS
iteration_state: {dtset: 1, itime: 8, icycle: 1, }
comment   : Summary of ground state results
lattice_vectors:
- [  2.9763187,  -5.1551351,   0.0000000, ]
- [  2.9763187,   5.1551351,   0.0000000, ]
- [  0.0000000,   0.0000000,  37.7945227, ]
lattice_lengths: [   5.95264,    5.95264,   37.79452, ]
lattice_angles: [ 90.000,  90.000, 120.000, ] # degrees, (23, 13, 12)
lattice_volume:   1.1597873E+03
convergence: {deltae: -3.476E-09, res2:  4.336E-04, residm:  1.517E-05, diffor:  7.908E-06, }
etotal    :  -9.16106994E+01
entropy   :   0.00000000E+00
fermie    :  -7.45278118E-02
cartesian_stress_tensor: # hartree/bohr^3
- [  9.80253005E-04,  -1.30309749E-10,  -1.06643181E-09, ]
- [ -1.30309749E-10,   1.02791974E-03,  -1.55899940E-09, ]
- [ -1.06643181E-09,  -1.55899940E-09,   1.03211721E-03, ]
pressure_GPa:  -2.9816E+01
xred      :
- [  3.3062E-01,   6.6938E-01,   3.8803E-07, Mo]
- [  6.6803E-01,   3.3198E-01,  -7.9828E-02,  S]
- [  6.6802E-01,   3.3197E-01,   7.9827E-02,  S]
cartesian_forces: # hartree/bohr
- [ -1.19337174E-07,   3.74205297E-05,  -6.94011800E-06, ]
- [ -1.45595156E-07,  -1.89720189E-05,   2.84357568E-05, ]
- [  2.64932330E-07,  -1.84485108E-05,  -2.14956388E-05, ]
force_length_stats: {min:   2.83280819E-05, max:   3.80588429E-05, mean:   3.35236665E-05, }
...

 Integrated electronic density in atomic spheres:
 ------------------------------------------------
 Atom  Sphere_radius  Integrated_density
    1        2.00000         10.40314166
    2        2.00000          3.93233023
    3        2.00000          3.93233925
 
---OUTPUT-----------------------------------------------------------------------
 
 Cartesian coordinates (xcart) [bohr]
  2.97631898094998E+00  1.74639083775594E+00  1.46654530711201E-05
  2.97632053218750E+00 -1.73238236186433E+00 -3.01705106207866E+00
  2.97631646474719E+00 -1.73238685502081E+00  3.01703639662559E+00
 Reduced coordinates (xred)
  3.30616440297822E-01  6.69383667773633E-01  3.88031175944150E-07
  6.68025236937570E-01  3.31975392327246E-01 -7.98277329602139E-02
  6.68024989431275E-01  3.31974273232454E-01  7.98273449290380E-02
 Cartesian forces (fcart) [Ha/bohr]; max,rms= 3.74205E-05 1.94922E-05 (free atoms)
 -1.19337174141220E-07  3.74205296685746E-05 -6.94011799817128E-06
 -1.45595156080830E-07 -1.89720189085381E-05  2.84357568173647E-05
  2.64932330222050E-07 -1.84485107600365E-05 -2.14956388191934E-05
 Gradient of E wrt nuclear positions in reduced coordinates (gred)
  1.93263072812268E-04 -1.92552701895980E-04  2.62298446929085E-04
 -9.73699837228405E-05  9.82366588823331E-05 -1.07471585532310E-03
 -9.58930890894277E-05  9.43160430136470E-05  8.12417408394018E-04
 Total energy (etotal) [Ha]= -9.16106994416969E+01
 
 Difference of energy with previous step (new-old):
           Absolute (Ha)=-4.51903E-06
           Relative     =-4.93286E-08
 
 At Broyd/MD step   8, gradients are converged : 
  max grad (force/stress) = 3.7421E-05 < tolmxf= 5.0000E-04 ha/bohr (free atoms)
 
================================================================================
 
 ----iterations are completed or convergence reached----
 
 Mean square residual over all n,k,spin=   21.672E-08; max=  15.170E-06
 reduced coordinates (array xred) for    3 atoms
       0.330616440298      0.669383667774      0.000000388031
       0.668025236938      0.331975392327     -0.079827732960
       0.668024989431      0.331974273232      0.079827344929
 rms dE/dt=  4.7090E-04; max dE/dt=  8.1167E-04; dE/dt below (all hartree)
    1       0.000199453538     -0.000198874059      0.000261549858
    2      -0.000091179519      0.000091915301     -0.001075464444
    3      -0.000089702624      0.000087994686      0.000811668820
 
 cartesian coordinates (angstrom) at end:
    1      1.57500017021254     0.92415022863084     0.00000776062352
    2      1.57500099109209    -0.91673726246192    -1.59655465920428
    3      1.57499883869537    -0.91673964013792     1.59654689858076
 
 cartesian forces (hartree/bohr) at end:
    1     -0.00000011933717     0.00003742052967    -0.00000694011800
    2     -0.00000014559516    -0.00001897201891     0.00002843575682
    3      0.00000026493233    -0.00001844851076    -0.00002149563882
 frms,max,avg= 1.9492183E-05 3.7420530E-05   2.199E-08  1.214E-06  1.981E-08 h/b
 
 cartesian forces (eV/Angstrom) at end:
    1     -0.00000613656371     0.00192424084130    -0.00035687518626
    2     -0.00000748680332    -0.00097558035520     0.00146222528398
    3      0.00001362336703    -0.00094866048611    -0.00110535009772
 frms,max,avg= 1.0023283E-03 1.9242408E-03   1.131E-06  6.240E-05  1.019E-06 e/A
 length scales=  5.952637318590  5.952637318590 37.794522657713 bohr
              =  3.150000000000  3.150000000000 20.000000000000 angstroms
 prteigrs : about to open file mos2_ecuto_DS1_EIG
 Fermi (or HOMO) energy (hartree) =  -0.07453   Average Vxc (hartree)=  -0.15155
 Eigenvalues (hartree) for nkpt=   5  k points:
 kpt#   1, nband= 14, wtk=  0.22222, kpt=  0.1667  0.1667  0.5000 (reduced coord)
  -2.20629   -1.41823   -1.41743   -1.41548   -0.53224   -0.51320   -0.24369   -0.19705
  -0.19287   -0.17869   -0.13099   -0.10242   -0.09235    0.00994
 prteigrs : prtvol=0 or 1, do not print more k-points.
 

--- !EnergyTerms
iteration_state     : {dtset: 1, itime: 8, icycle: 1, }
comment             : Components of total free energy in Hartree
kinetic             :  2.87180007074365E+01
hartree             :  2.81414727548744E+02
xc                  : -1.64630218381059E+01
Ewald energy        :  2.06236051483097E+02
psp_core            :  7.63117176066322E-01
local_psp           : -6.04471803937853E+02
non_local_psp       :  1.21922294189176E+01
total_energy        : -9.16106994416969E+01
total_energy_eV     : -2.49285390819110E+03
band_energy         : -1.73287529014854E+01
...

 rms coord change=  5.9233E-03   atom, delta coord (reduced):
     1       -0.002716893036      0.002717001107      0.000000388031
     2        0.001358570271     -0.001357941006      0.012116502040
     3        0.001358322765     -0.001359060101     -0.012116890071
 
 Cartesian components of stress tensor (hartree/bohr^3)
  sigma(1 1)=  9.80253005E-04  sigma(3 2)= -1.55899940E-09
  sigma(2 2)=  1.02791974E-03  sigma(3 1)= -1.06643181E-09
  sigma(3 3)=  1.03211721E-03  sigma(2 1)= -1.30309749E-10
 
-Cartesian components of stress tensor (GPa)         [Pressure= -2.9816E+01 GPa]
- sigma(1 1)=  2.88400343E+01  sigma(3 2)= -4.58673383E-05
- sigma(2 2)=  3.02424378E+01  sigma(3 1)= -3.13755017E-05
- sigma(3 3)=  3.03659316E+01  sigma(2 1)= -3.83384453E-06
 
== END DATASET(S) ==============================================================
================================================================================
  
 -outvars: echo values of variables after computation  --------
            acell      5.9526373186E+00  5.9526373186E+00  3.7794522658E+01 Bohr
              amu      9.59400000E+01  3.20660000E+01
      chksymbreak           0
             ecut      1.00000000E+01 Hartree
           etotal1    -9.1610699442E+01
            fcart1    -1.1933717414E-07  3.7420529669E-05 -6.9401179982E-06
                      -1.4559515608E-07 -1.8972018909E-05  2.8435756817E-05
                       2.6493233022E-07 -1.8448510760E-05 -2.1495638819E-05
-          fftalg         512
           ionmov           2
           istwfk        0    0    0    0    9
              ixc          11
           jdtset        1
              kpt      1.66666667E-01  1.66666667E-01  5.00000000E-01
                       5.00000000E-01  1.66666667E-01  5.00000000E-01
                      -1.66666667E-01  1.66666667E-01  5.00000000E-01
                       1.66666667E-01  5.00000000E-01  5.00000000E-01
                       5.00000000E-01  5.00000000E-01  5.00000000E-01
         kptrlatt        3    0    0      0    3    0      0    0    1
          kptrlen      1.78579120E+01
P           mkmem           5
            natom           3
            nband          14
           ndtset           1
            ngfft          18      18     108
             nkpt           5
            nstep          10
             nsym           1
            ntime          10
           ntypat           2
              occ      2.000000  2.000000  2.000000  2.000000  2.000000  2.000000
                       2.000000  2.000000  2.000000  2.000000  2.000000  2.000000
                       2.000000  0.000000
        optforces           1
            rprim      5.0000000000E-01 -8.6602540378E-01  0.0000000000E+00
                       5.0000000000E-01  8.6602540378E-01  0.0000000000E+00
                       0.0000000000E+00  0.0000000000E+00  1.0000000000E+00
           shiftk      5.00000000E-01  5.00000000E-01  5.00000000E-01
          spgroup           1
           strten1     9.8025300529E-04  1.0279197424E-03  1.0321172102E-03
                      -1.5589994026E-09 -1.0664318082E-09 -1.3030974880E-10
           toldff      5.00000000E-05
           tolmxf      5.00000000E-04
            typat      1  2  2
              wtk        0.22222    0.22222    0.22222    0.22222    0.11111
           xangst      1.5750001702E+00  9.2415022863E-01  7.7606235189E-06
                       1.5750009911E+00 -9.1673726246E-01 -1.5965546592E+00
                       1.5749988387E+00 -9.1673964014E-01  1.5965468986E+00
            xcart      2.9763189809E+00  1.7463908378E+00  1.4665453071E-05
                       2.9763205322E+00 -1.7323823619E+00 -3.0170510621E+00
                       2.9763164647E+00 -1.7323868550E+00  3.0170363966E+00
             xred      3.3061644030E-01  6.6938366777E-01  3.8803117594E-07
                       6.6802523694E-01  3.3197539233E-01 -7.9827732960E-02
                       6.6802498943E-01  3.3197427323E-01  7.9827344929E-02
            znucl       42.00000   16.00000
 
================================================================================


- Timing analysis has been suppressed with timopt=0



================================================================================

 Suggested references for the acknowledgment of ABINIT usage.

 The users of ABINIT have little formal obligations with respect to the ABINIT group
 (those specified in the GNU General Public License, http://www.gnu.org/copyleft/gpl.txt).
 However, it is common practice in the scientific literature,
 to acknowledge the efforts of people that have made the research possible.
 In this spirit, please find below suggested citations of work written by ABINIT developers,
 corresponding to implementations inside of ABINIT that you have used in the present run.
 Note also that it will be of great value to readers of publications presenting these results,
 to read papers enabling them to understand the theoretical formalism and details
 of the ABINIT implementation.
 For information on why they are suggested, see also https://docs.abinit.org/theory/acknowledgments.
-
- [1] The Abinit project: Impact, environment and recent developments.
- Computer Phys. Comm. 248, 107042 (2020).
- X.Gonze, B. Amadon, G. Antonius, F.Arnardi, L.Baguet, J.-M.Beuken,
- J.Bieder, F.Bottin, J.Bouchet, E.Bousquet, N.Brouwer, F.Bruneval,
- G.Brunin, T.Cavignac, J.-B. Charraud, Wei Chen, M.Cote, S.Cottenier,
- J.Denier, G.Geneste, Ph.Ghosez, M.Giantomassi, Y.Gillet, O.Gingras,
- D.R.Hamann, G.Hautier, Xu He, N.Helbig, N.Holzwarth, Y.Jia, F.Jollet,
- W.Lafargue-Dit-Hauret, K.Lejaeghere, M.A.L.Marques, A.Martin, C.Martins,
- H.P.C. Miranda, F.Naccarato, K. Persson, G.Petretto, V.Planes, Y.Pouillon,
- S.Prokhorenko, F.Ricci, G.-M.Rignanese, A.H.Romero, M.M.Schmitt, M.Torrent,
- M.J.van Setten, B.Van Troeye, M.J.Verstraete, G.Zerah and J.W.Zwanzig
- Comment: the fifth generic paper describing the ABINIT project.
- Note that a version of this paper, that is not formatted for Computer Phys. Comm. 
- is available at https://www.abinit.org/sites/default/files/ABINIT20.pdf .
- The licence allows the authors to put it on the Web.
- DOI and bibtex: see https://docs.abinit.org/theory/bibliography/#gonze2020
-
- [2] Optimized norm-conserving Vanderbilt pseudopotentials.
- D.R. Hamann, Phys. Rev. B 88, 085117 (2013).
- Comment: Some pseudopotential generated using the ONCVPSP code were used.
- DOI and bibtex: see https://docs.abinit.org/theory/bibliography/#hamann2013
-
- [3] ABINIT: Overview, and focus on selected capabilities
- J. Chem. Phys. 152, 124102 (2020).
- A. Romero, D.C. Allan, B. Amadon, G. Antonius, T. Applencourt, L.Baguet,
- J.Bieder, F.Bottin, J.Bouchet, E.Bousquet, F.Bruneval,
- G.Brunin, D.Caliste, M.Cote,
- J.Denier, C. Dreyer, Ph.Ghosez, M.Giantomassi, Y.Gillet, O.Gingras,
- D.R.Hamann, G.Hautier, F.Jollet, G. Jomard,
- A.Martin, 
- H.P.C. Miranda, F.Naccarato, G.Petretto, N.A. Pike, V.Planes,
- S.Prokhorenko, T. Rangel, F.Ricci, G.-M.Rignanese, M.Royo, M.Stengel, M.Torrent,
- M.J.van Setten, B.Van Troeye, M.J.Verstraete, J.Wiktor, J.W.Zwanziger, and X.Gonze.
- Comment: a global overview of ABINIT, with focus on selected capabilities .
- Note that a version of this paper, that is not formatted for J. Chem. Phys 
- is available at https://www.abinit.org/sites/default/files/ABINIT20_JPC.pdf .
- The licence allows the authors to put it on the Web.
- DOI and bibtex: see https://docs.abinit.org/theory/bibliography/#romero2020
-
- [4] Recent developments in the ABINIT software package.
- Computer Phys. Comm. 205, 106 (2016).
- X.Gonze, F.Jollet, F.Abreu Araujo, D.Adams, B.Amadon, T.Applencourt,
- C.Audouze, J.-M.Beuken, J.Bieder, A.Bokhanchuk, E.Bousquet, F.Bruneval
- D.Caliste, M.Cote, F.Dahm, F.Da Pieve, M.Delaveau, M.Di Gennaro,
- B.Dorado, C.Espejo, G.Geneste, L.Genovese, A.Gerossier, M.Giantomassi,
- Y.Gillet, D.R.Hamann, L.He, G.Jomard, J.Laflamme Janssen, S.Le Roux,
- A.Levitt, A.Lherbier, F.Liu, I.Lukacevic, A.Martin, C.Martins,
- M.J.T.Oliveira, S.Ponce, Y.Pouillon, T.Rangel, G.-M.Rignanese,
- A.H.Romero, B.Rousseau, O.Rubel, A.A.Shukri, M.Stankovski, M.Torrent,
- M.J.Van Setten, B.Van Troeye, M.J.Verstraete, D.Waroquier, J.Wiktor,
- B.Xu, A.Zhou, J.W.Zwanziger.
- Comment: the fourth generic paper describing the ABINIT project.
- Note that a version of this paper, that is not formatted for Computer Phys. Comm. 
- is available at https://www.abinit.org/sites/default/files/ABINIT16.pdf .
- The licence allows the authors to put it on the Web.
- DOI and bibtex: see https://docs.abinit.org/theory/bibliography/#gonze2016
-
- And optionally:
-
- [5] ABINIT: First-principles approach of materials and nanosystem properties.
- Computer Phys. Comm. 180, 2582-2615 (2009).
- X. Gonze, B. Amadon, P.-M. Anglade, J.-M. Beuken, F. Bottin, P. Boulanger, F. Bruneval,
- D. Caliste, R. Caracas, M. Cote, T. Deutsch, L. Genovese, Ph. Ghosez, M. Giantomassi
- S. Goedecker, D.R. Hamann, P. Hermet, F. Jollet, G. Jomard, S. Leroux, M. Mancini, S. Mazevet,
- M.J.T. Oliveira, G. Onida, Y. Pouillon, T. Rangel, G.-M. Rignanese, D. Sangalli, R. Shaltaf,
- M. Torrent, M.J. Verstraete, G. Zerah, J.W. Zwanziger
- Comment: the third generic paper describing the ABINIT project.
- Note that a version of this paper, that is not formatted for Computer Phys. Comm. 
- is available at https://www.abinit.org/sites/default/files/ABINIT_CPC_v10.pdf .
- The licence allows the authors to put it on the Web.
- DOI and bibtex: see https://docs.abinit.org/theory/bibliography/#gonze2009
-
- Proc.   0 individual time (sec): cpu=         52.0  wall=         55.8
 
================================================================================
 
 Calculation completed.
.Delivered   5 WARNINGs and   5 COMMENTs to log file.
+Overall time at end (sec) : cpu=         52.0  wall=         55.8
