  ABINIT 9.10.3
  
-instrng: 94 lines of input have been read from file tbase2_3.abi
 
 
--- !COMMENT
src_file: m_dtfil.F90
src_line: 1441
message: |
    Output file: tbase2_3.abo already exists.
...
 
 
--- !COMMENT
src_file: m_dtfil.F90
src_line: 1465
message: |
    Renaming old: tbase2_3.abo to: tbase2_3.abo0001
...
 

.Version 9.10.3 of ABINIT 
.(MPI version, prepared for a x86_64_linux_intel2021.6 computer) 

.Copyright (C) 1998-2022 ABINIT group . 
 ABINIT comes with ABSOLUTELY NO WARRANTY.
 It is free software, and you are welcome to redistribute it
 under certain conditions (GNU General Public License,
 see ~abinit/COPYING or http://www.gnu.org/copyleft/gpl.txt).

 ABINIT is a project of the Universite Catholique de Louvain,
 Corning Inc. and other collaborators, see ~abinit/doc/developers/contributors.txt .
 Please read https://docs.abinit.org/theory/acknowledgments for suggested
 acknowledgments of the ABINIT effort.
 For more information, see https://www.abinit.org .

.Starting date : Thu 24 Apr 2025.
- ( at 16h12 )
  
 
 ++++++++++++++++++++++++++++++++++++++++++++++++++++++++++++++++++++++++++++++
 
 === Build Information === 
  Version       : 9.10.3
  Build target  : x86_64_linux_intel2021.6
  Build date    : 20240126
 
 === Compiler Suite === 
  C compiler       : intel2021.6
  C++ compiler     : gnu2021.6
  Fortran compiler : intel2021.6
  CFLAGS           : -g -O2
  CXXFLAGS         : -g -O2 -mtune=native -march=native
  FCFLAGS          : -g -extend-source -nofpscomp     -I/shared/ucl/apps/NetCDF/4.9.2-in ...
  FC_LDFLAGS       :   -static-intel -static-libgcc
 
 === Optimizations === 
  Debug level        : basic
  Optimization level : standard
  Architecture       : intel_xeon
 
 === Multicore === 
  Parallel build : /shared/ucl/apps/intel/2020/impi/2019.6.166/intel64
  Parallel I/O   : 
  openMP support : 
  GPU support    : 
 
 === Connectors / Fallbacks === 
  LINALG flavor  : mkl
  FFT flavor     : dfti
  HDF5           : yes
  NetCDF         : yes
  NetCDF Fortran : yes
  LibXC          : yes
  Wannier90      : no
 
 === Experimental features === 
  Exports             : 
  GW double-precision : 
 
 ++++++++++++++++++++++++++++++++++++++++++++++++++++++++++++++++++++++++++++++
 

 ++++++++++++++++++++++++++++++++++++++++++++++++++++++++++++++++++++++++++++++
 Default optimizations:
   -O3


 Optimizations for 43_ptgroups:
   -O0


 ++++++++++++++++++++++++++++++++++++++++++++++++++++++++++++++++++++++++++++++


 ++++++++++++++++++++++++++++++++++++++++++++++++++++++++++++++++++++++++++++++
 CPP options activated during the build:

                  CC_INTEL                   CXX_GNU                  FC_INTEL
 
                 HAVE_DFTI HAVE_FC_ALLOCATABLE_DT...             HAVE_FC_ASYNC
 
  HAVE_FC_COMMAND_ARGUMENT      HAVE_FC_COMMAND_LINE        HAVE_FC_CONTIGUOUS
 
           HAVE_FC_CPUTIME              HAVE_FC_EXIT             HAVE_FC_FLUSH
 
             HAVE_FC_GAMMA   HAVE_FC_IEEE_ARITHMETIC   HAVE_FC_IEEE_EXCEPTIONS
 
             HAVE_FC_IOMSG     HAVE_FC_ISO_C_BINDING  HAVE_FC_ISO_FORTRAN_2008
 
        HAVE_FC_LONG_LINES        HAVE_FC_MOVE_ALLOC  HAVE_FC_ON_THE_FLY_SHAPE
 
           HAVE_FC_PRIVATE         HAVE_FC_PROTECTED           HAVE_FC_SHIFTLR
 
         HAVE_FC_STREAM_IO                 HAVE_HDF5             HAVE_HDF5_MPI
 
        HAVE_LIBPAW_ABINIT      HAVE_LIBTETRA_ABINIT                HAVE_LIBXC
 
         HAVE_LINALG_AXPBY        HAVE_LINALG_GEMM3M         HAVE_LINALG_GEMMT
 
  HAVE_LINALG_MKL_IMATCOPY   HAVE_LINALG_MKL_OMATADD  HAVE_LINALG_MKL_OMATCOPY
 
   HAVE_LINALG_MKL_THREADS     HAVE_LINALG_SCALAPACK                  HAVE_MPI
 
                 HAVE_MPI2       HAVE_MPI_IALLGATHER       HAVE_MPI_IALLREDUCE
 
        HAVE_MPI_IALLTOALL       HAVE_MPI_IALLTOALLV           HAVE_MPI_IBCAST
 
         HAVE_MPI_IGATHERV        HAVE_MPI_INTEGER16               HAVE_MPI_IO
 
 HAVE_MPI_TYPE_CREATE_S...               HAVE_NETCDF       HAVE_NETCDF_FORTRAN
 
   HAVE_NETCDF_FORTRAN_MPI           HAVE_NETCDF_MPI             HAVE_OS_LINUX
 
         HAVE_TIMER_ABINIT                                                      
 ++++++++++++++++++++++++++++++++++++++++++++++++++++++++++++++++++++++++++++++

- input  file    -> tbase2_3.abi
- output file    -> tbase2_3.abo
- root for input  files -> tbase2_3i
- root for output files -> tbase2_3o
 
 Netcdf library supports MPI-IO
-instrng: 94 lines of input have been read from file tbase2_3.abi
 
 For atom type 1, psp file is ../basic1/persudo/H.psp8
  read the values zionpsp=  1.0 , pspcod=   8 , lmax=   1
 
 inpspheads: deduce mpsang = 2, n1xccc = 0.

======================================================= 
 invars1m : enter jdtset= 11
 
 symlatt: the Bravais lattice is cP (primitive cubic)
  xcart  is defined in input file (possibly in Angstrom)
 ingeo: takes atomic coordinates from input array xcart
 
--- !COMMENT
src_file: m_ingeo.F90
src_line: 890
message: |
    The tolerance on symmetries =   1.000E-05 is bigger than 1.0e-8.
    In order to avoid spurious effects, the atomic coordinates have been
    symmetrized before storing them in the dataset internal variable.
    So, do not be surprised by the fact that your input variables (xcart, xred, ...)
    do not correspond exactly to the ones echoed by ABINIT, the latter being used to do the calculations.
    This is not a problem per se.
    Still, in order to avoid this symmetrization (e.g. for specific debugging/development), decrease tolsym to 1.0e-8 or lower,
    or (much preferred) use input primitive vectors that are accurate to better than 1.0e-8.
    This message will only be printed once, even if there are other datasets where tolsym is bigger than 1.0e-8.
...
 
 
 symlatt: the Bravais lattice is cP (primitive cubic)
 
 symlatt: the Bravais lattice is cP (primitive cubic)
 
--- !COMMENT
src_file: m_symfind.F90
src_line: 995
message: |
    The Bravais lattice determined only from the primitive
    vectors, bravais(1)=  7, is more symmetric
    than the real one, iholohedry=  4, obtained by taking into
    account the atomic positions. Start deforming the primitive vector set.
...
 
 
 symlatt: the Bravais lattice is tP (primitive tetragonal)
 symspgr: spgroup= 123  P4/m m m   (=D4h^1)
 symspgr: optical characteristics = uniaxial
 Optical axis (in reduced coordinates, real space ) :   1   0   0
 inkpts: Sum of 1 k point weights is    1.000000

======================================================= 
 invars1m : enter jdtset= 12
 
 symlatt: the Bravais lattice is cP (primitive cubic)
  xcart  is defined in input file (possibly in Angstrom)
 ingeo: takes atomic coordinates from input array xcart
 
 symlatt: the Bravais lattice is cP (primitive cubic)
 
 symlatt: the Bravais lattice is cP (primitive cubic)
 symspgr: spgroup= 221  Pm -3 m   (=Oh^1)
 symspgr: optical characteristics = isotropic
 inkpts: Sum of 1 k point weights is    1.000000

======================================================= 
 invars1m : enter jdtset= 21
 
 symlatt: the Bravais lattice is cP (primitive cubic)
  xcart  is defined in input file (possibly in Angstrom)
 ingeo: takes atomic coordinates from input array xcart
 
 symlatt: the Bravais lattice is cP (primitive cubic)
 
 symlatt: the Bravais lattice is cP (primitive cubic)
 
--- !COMMENT
src_file: m_symfind.F90
src_line: 995
message: |
    The Bravais lattice determined only from the primitive
    vectors, bravais(1)=  7, is more symmetric
    than the real one, iholohedry=  4, obtained by taking into
    account the atomic positions. Start deforming the primitive vector set.
...
 
 
 symlatt: the Bravais lattice is tP (primitive tetragonal)
 symspgr: spgroup= 123  P4/m m m   (=D4h^1)
 symspgr: optical characteristics = uniaxial
 Optical axis (in reduced coordinates, real space ) :   1   0   0
 inkpts: Sum of 1 k point weights is    1.000000

======================================================= 
 invars1m : enter jdtset= 22
 
 symlatt: the Bravais lattice is cP (primitive cubic)
  xcart  is defined in input file (possibly in Angstrom)
 ingeo: takes atomic coordinates from input array xcart
 
 symlatt: the Bravais lattice is cP (primitive cubic)
 
 symlatt: the Bravais lattice is cP (primitive cubic)
 symspgr: spgroup= 221  Pm -3 m   (=Oh^1)
 symspgr: optical characteristics = isotropic
 inkpts: Sum of 1 k point weights is    1.000000

======================================================= 
 invars1m : enter jdtset= 31
 
 symlatt: the Bravais lattice is cP (primitive cubic)
  xcart  is defined in input file (possibly in Angstrom)
 ingeo: takes atomic coordinates from input array xcart
 
 symlatt: the Bravais lattice is cP (primitive cubic)
 
 symlatt: the Bravais lattice is cP (primitive cubic)
 
--- !COMMENT
src_file: m_symfind.F90
src_line: 995
message: |
    The Bravais lattice determined only from the primitive
    vectors, bravais(1)=  7, is more symmetric
    than the real one, iholohedry=  4, obtained by taking into
    account the atomic positions. Start deforming the primitive vector set.
...
 
 
 symlatt: the Bravais lattice is tP (primitive tetragonal)
 symspgr: spgroup= 123  P4/m m m   (=D4h^1)
 symspgr: optical characteristics = uniaxial
 Optical axis (in reduced coordinates, real space ) :   1   0   0
 inkpts: Sum of 1 k point weights is    1.000000

======================================================= 
 invars1m : enter jdtset= 32
 
 symlatt: the Bravais lattice is cP (primitive cubic)
  xcart  is defined in input file (possibly in Angstrom)
 ingeo: takes atomic coordinates from input array xcart
 
 symlatt: the Bravais lattice is cP (primitive cubic)
 
 symlatt: the Bravais lattice is cP (primitive cubic)
 symspgr: spgroup= 221  Pm -3 m   (=Oh^1)
 symspgr: optical characteristics = isotropic
 inkpts: Sum of 1 k point weights is    1.000000

======================================================= 
 invars1m : enter jdtset= 41
 
 symlatt: the Bravais lattice is cP (primitive cubic)
  xcart  is defined in input file (possibly in Angstrom)
 ingeo: takes atomic coordinates from input array xcart
 
 symlatt: the Bravais lattice is cP (primitive cubic)
 
 symlatt: the Bravais lattice is cP (primitive cubic)
 
--- !COMMENT
src_file: m_symfind.F90
src_line: 995
message: |
    The Bravais lattice determined only from the primitive
    vectors, bravais(1)=  7, is more symmetric
    than the real one, iholohedry=  4, obtained by taking into
    account the atomic positions. Start deforming the primitive vector set.
...
 
 
 symlatt: the Bravais lattice is tP (primitive tetragonal)
 symspgr: spgroup= 123  P4/m m m   (=D4h^1)
 symspgr: optical characteristics = uniaxial
 Optical axis (in reduced coordinates, real space ) :   1   0   0
 inkpts: Sum of 1 k point weights is    1.000000

======================================================= 
 invars1m : enter jdtset= 42
 
 symlatt: the Bravais lattice is cP (primitive cubic)
  xcart  is defined in input file (possibly in Angstrom)
 ingeo: takes atomic coordinates from input array xcart
 
 symlatt: the Bravais lattice is cP (primitive cubic)
 
 symlatt: the Bravais lattice is cP (primitive cubic)
 symspgr: spgroup= 221  Pm -3 m   (=Oh^1)
 symspgr: optical characteristics = isotropic
 inkpts: Sum of 1 k point weights is    1.000000

======================================================= 
 invars1m : enter jdtset= 51
 
 symlatt: the Bravais lattice is cP (primitive cubic)
  xcart  is defined in input file (possibly in Angstrom)
 ingeo: takes atomic coordinates from input array xcart
 
 symlatt: the Bravais lattice is cP (primitive cubic)
 
 symlatt: the Bravais lattice is cP (primitive cubic)
 
--- !COMMENT
src_file: m_symfind.F90
src_line: 995
message: |
    The Bravais lattice determined only from the primitive
    vectors, bravais(1)=  7, is more symmetric
    than the real one, iholohedry=  4, obtained by taking into
    account the atomic positions. Start deforming the primitive vector set.
...
 
 
 symlatt: the Bravais lattice is tP (primitive tetragonal)
 symspgr: spgroup= 123  P4/m m m   (=D4h^1)
 symspgr: optical characteristics = uniaxial
 Optical axis (in reduced coordinates, real space ) :   1   0   0
 inkpts: Sum of 1 k point weights is    1.000000

======================================================= 
 invars1m : enter jdtset= 52
 
 symlatt: the Bravais lattice is cP (primitive cubic)
  xcart  is defined in input file (possibly in Angstrom)
 ingeo: takes atomic coordinates from input array xcart
 
 symlatt: the Bravais lattice is cP (primitive cubic)
 
 symlatt: the Bravais lattice is cP (primitive cubic)
 symspgr: spgroup= 221  Pm -3 m   (=Oh^1)
 symspgr: optical characteristics = isotropic
 inkpts: Sum of 1 k point weights is    1.000000

======================================================= 
 invars1m : enter jdtset= 61
 
 symlatt: the Bravais lattice is cP (primitive cubic)
  xcart  is defined in input file (possibly in Angstrom)
 ingeo: takes atomic coordinates from input array xcart
 
 symlatt: the Bravais lattice is cP (primitive cubic)
 
 symlatt: the Bravais lattice is cP (primitive cubic)
 
--- !COMMENT
src_file: m_symfind.F90
src_line: 995
message: |
    The Bravais lattice determined only from the primitive
    vectors, bravais(1)=  7, is more symmetric
    than the real one, iholohedry=  4, obtained by taking into
    account the atomic positions. Start deforming the primitive vector set.
...
 
 
 symlatt: the Bravais lattice is tP (primitive tetragonal)
 symspgr: spgroup= 123  P4/m m m   (=D4h^1)
 symspgr: optical characteristics = uniaxial
 Optical axis (in reduced coordinates, real space ) :   1   0   0
 inkpts: Sum of 1 k point weights is    1.000000

======================================================= 
 invars1m : enter jdtset= 62
 
 symlatt: the Bravais lattice is cP (primitive cubic)
  xcart  is defined in input file (possibly in Angstrom)
 ingeo: takes atomic coordinates from input array xcart
 
 symlatt: the Bravais lattice is cP (primitive cubic)
 
 symlatt: the Bravais lattice is cP (primitive cubic)
 symspgr: spgroup= 221  Pm -3 m   (=Oh^1)
 symspgr: optical characteristics = isotropic
 inkpts: Sum of 1 k point weights is    1.000000
 inkpts: Sum of 1 k point weights is    1.000000
 inkpts: Sum of 1 k point weights is    1.000000
 invars2: reading occ(nband*nkpt*nsppol) explicitly
 inkpts: Sum of 1 k point weights is    1.000000
 inkpts: Sum of 1 k point weights is    1.000000
 invars2: reading occ(nband*nkpt*nsppol) explicitly
 inkpts: Sum of 1 k point weights is    1.000000
 inkpts: Sum of 1 k point weights is    1.000000
 invars2: reading occ(nband*nkpt*nsppol) explicitly
 inkpts: Sum of 1 k point weights is    1.000000
 inkpts: Sum of 1 k point weights is    1.000000
 invars2: reading occ(nband*nkpt*nsppol) explicitly
 inkpts: Sum of 1 k point weights is    1.000000
 inkpts: Sum of 1 k point weights is    1.000000
 invars2: reading occ(nband*nkpt*nsppol) explicitly
 inkpts: Sum of 1 k point weights is    1.000000
 inkpts: Sum of 1 k point weights is    1.000000
 invars2: reading occ(nband*nkpt*nsppol) explicitly
 LMac pawujat is:            0
 LMac pawujat is:            0
 LMac pawujat is:            0
 LMac pawujat is:            0
 LMac pawujat is:            0
 LMac pawujat is:            0
 LMac pawujat is:            0
 LMac pawujat is:            0
 LMac pawujat is:            0
 LMac pawujat is:            0
 LMac pawujat is:            0
 LMac pawujat is:            0
 For input ecut=  1.000000E+01 best grid ngfft=      24      24      24
       max ecut=  1.110330E+01
 
 ==== FFT mesh ====
  FFT mesh divisions ........................    24   24   24
  Augmented FFT divisions ...................    25   25   24
  FFT algorithm .............................   512
  FFT cache size ............................    16
 getmpw: optimal value of mpw= 376
 For input ecut=  1.000000E+01 best grid ngfft=      24      24      24
       max ecut=  1.110330E+01
 
 ==== FFT mesh ====
  FFT mesh divisions ........................    24   24   24
  Augmented FFT divisions ...................    25   25   24
  FFT algorithm .............................   512
  FFT cache size ............................    16
 getmpw: optimal value of mpw= 376
 For input ecut=  1.000000E+01 best grid ngfft=      30      30      30
       max ecut=  1.110330E+01
 
 ==== FFT mesh ====
  FFT mesh divisions ........................    30   30   30
  Augmented FFT divisions ...................    31   31   30
  FFT algorithm .............................   512
  FFT cache size ............................    16
 getmpw: optimal value of mpw= 752
 For input ecut=  1.000000E+01 best grid ngfft=      30      30      30
       max ecut=  1.110330E+01
 
 ==== FFT mesh ====
  FFT mesh divisions ........................    30   30   30
  Augmented FFT divisions ...................    31   31   30
  FFT algorithm .............................   512
  FFT cache size ............................    16
 getmpw: optimal value of mpw= 752
 For input ecut=  1.000000E+01 best grid ngfft=      36      36      36
       max ecut=  1.110330E+01
 
 ==== FFT mesh ====
  FFT mesh divisions ........................    36   36   36
  Augmented FFT divisions ...................    37   37   36
  FFT algorithm .............................   512
  FFT cache size ............................    16
 getmpw: optimal value of mpw= 1277
 For input ecut=  1.000000E+01 best grid ngfft=      36      36      36
       max ecut=  1.110330E+01
 
 ==== FFT mesh ====
  FFT mesh divisions ........................    36   36   36
  Augmented FFT divisions ...................    37   37   36
  FFT algorithm .............................   512
  FFT cache size ............................    16
 getmpw: optimal value of mpw= 1277
 For input ecut=  1.000000E+01 best grid ngfft=      40      40      40
       max ecut=  1.007102E+01
 
 ==== FFT mesh ====
  FFT mesh divisions ........................    40   40   40
  Augmented FFT divisions ...................    41   41   40
  FFT algorithm .............................   512
  FFT cache size ............................    16
 getmpw: optimal value of mpw= 2070
 For input ecut=  1.000000E+01 best grid ngfft=      40      40      40
       max ecut=  1.007102E+01
 
 ==== FFT mesh ====
  FFT mesh divisions ........................    40   40   40
  Augmented FFT divisions ...................    41   41   40
  FFT algorithm .............................   512
  FFT cache size ............................    16
 getmpw: optimal value of mpw= 2070
 For input ecut=  1.000000E+01 best grid ngfft=      48      48      48
       max ecut=  1.110330E+01
 
 ==== FFT mesh ====
  FFT mesh divisions ........................    48   48   48
  Augmented FFT divisions ...................    49   49   48
  FFT algorithm .............................   512
  FFT cache size ............................    16
 getmpw: optimal value of mpw= 3094
 For input ecut=  1.000000E+01 best grid ngfft=      48      48      48
       max ecut=  1.110330E+01
 
 ==== FFT mesh ====
  FFT mesh divisions ........................    48   48   48
  Augmented FFT divisions ...................    49   49   48
  FFT algorithm .............................   512
  FFT cache size ............................    16
 getmpw: optimal value of mpw= 3094
 For input ecut=  1.000000E+01 best grid ngfft=      54      54      54
       max ecut=  1.110330E+01
 
 ==== FFT mesh ====
  FFT mesh divisions ........................    54   54   54
  Augmented FFT divisions ...................    55   55   54
  FFT algorithm .............................   512
  FFT cache size ............................    16
 getmpw: optimal value of mpw= 4415
 For input ecut=  1.000000E+01 best grid ngfft=      54      54      54
       max ecut=  1.110330E+01
 
 ==== FFT mesh ====
  FFT mesh divisions ........................    54   54   54
  Augmented FFT divisions ...................    55   55   54
  FFT algorithm .............................   512
  FFT cache size ............................    16
 getmpw: optimal value of mpw= 4415
 
 DATASET   11 : space group P4/m m m (#123); Bravais tP (primitive tetrag.)
 
 getdim_nloc: deduce lmnmax  =   5, lnmax  =   3,
                      lmnmaxso=   5, lnmaxso=   3.
memory: analysis of memory needs
================================================================================
 Values of the parameters that define the memory need for DATASET 11.
     intxc =       0    ionmov =       2      iscf =       7    lmnmax =       3
     lnmax =       3     mgfft =      24  mpssoang =       2    mqgrid =    3001
     natom =       2  nloc_mem =       1    nspden =       1   nspinor =       1
    nsppol =       1      nsym =      16    n1xccc =       0    ntypat =       1
    occopt =       1   xclevel =       2
-    mband =           1        mffmem =           1         mkmem =           1
       mpw =         376          nfft =       13824          nkpt =           1
================================================================================
P This job should need less than                       4.718 Mbytes of memory.
  Rough estimation (10% accuracy) of disk space for files :
_ WF disk file :      0.008 Mbytes ; DEN or POT disk file :      0.107 Mbytes.
================================================================================
 
 Biggest array : f_fftgr(disk), with      1.6895 MBytes.
 memana : allocated an array of      1.690 Mbytes, for testing purposes.
 memana: allocated       4.718Mbytes, for testing purposes. 
 The job will continue.
 
 DATASET   12 : space group Pm -3 m (#221); Bravais cP (primitive cubic)
 
 getdim_nloc: deduce lmnmax  =   5, lnmax  =   3,
                      lmnmaxso=   5, lnmaxso=   3.
memory: analysis of memory needs
================================================================================
 Values of the parameters that define the memory need for DATASET 12.
     intxc =       0    ionmov =       0      iscf =       7    lmnmax =       3
     lnmax =       3     mgfft =      24  mpssoang =       2    mqgrid =    3001
     natom =       1  nloc_mem =       1    nspden =       2   nspinor =       1
    nsppol =       2      nsym =      48    n1xccc =       0    ntypat =       1
    occopt =       2   xclevel =       2
-    mband =           1        mffmem =           1         mkmem =           1
       mpw =         376          nfft =       13824          nkpt =           1
================================================================================
P This job should need less than                       7.564 Mbytes of memory.
  Rough estimation (10% accuracy) of disk space for files :
_ WF disk file :      0.013 Mbytes ; DEN or POT disk file :      0.213 Mbytes.
================================================================================
 
 Biggest array : f_fftgr(disk), with      3.3770 MBytes.
 memana : allocated an array of      3.377 Mbytes, for testing purposes.
 memana: allocated       7.564Mbytes, for testing purposes. 
 The job will continue.
 
 DATASET   21 : space group P4/m m m (#123); Bravais tP (primitive tetrag.)
 
 getdim_nloc: deduce lmnmax  =   5, lnmax  =   3,
                      lmnmaxso=   5, lnmaxso=   3.
memory: analysis of memory needs
================================================================================
 Values of the parameters that define the memory need for DATASET 21.
     intxc =       0    ionmov =       2      iscf =       7    lmnmax =       3
     lnmax =       3     mgfft =      30  mpssoang =       2    mqgrid =    3001
     natom =       2  nloc_mem =       1    nspden =       1   nspinor =       1
    nsppol =       1      nsym =      16    n1xccc =       0    ntypat =       1
    occopt =       1   xclevel =       2
-    mband =           1        mffmem =           1         mkmem =           1
       mpw =         752          nfft =       27000          nkpt =           1
================================================================================
P This job should need less than                       8.760 Mbytes of memory.
  Rough estimation (10% accuracy) of disk space for files :
_ WF disk file :      0.013 Mbytes ; DEN or POT disk file :      0.208 Mbytes.
================================================================================
 
 Biggest array : f_fftgr(disk), with      3.2979 MBytes.
 memana : allocated an array of      3.298 Mbytes, for testing purposes.
 memana: allocated       8.760Mbytes, for testing purposes. 
 The job will continue.
 
 DATASET   22 : space group Pm -3 m (#221); Bravais cP (primitive cubic)
 
 getdim_nloc: deduce lmnmax  =   5, lnmax  =   3,
                      lmnmaxso=   5, lnmaxso=   3.
memory: analysis of memory needs
================================================================================
 Values of the parameters that define the memory need for DATASET 22.
     intxc =       0    ionmov =       0      iscf =       7    lmnmax =       3
     lnmax =       3     mgfft =      30  mpssoang =       2    mqgrid =    3001
     natom =       1  nloc_mem =       1    nspden =       2   nspinor =       1
    nsppol =       2      nsym =      48    n1xccc =       0    ntypat =       1
    occopt =       2   xclevel =       2
-    mband =           1        mffmem =           1         mkmem =           1
       mpw =         752          nfft =       27000          nkpt =           1
================================================================================
P This job should need less than                      14.325 Mbytes of memory.
  Rough estimation (10% accuracy) of disk space for files :
_ WF disk file :      0.025 Mbytes ; DEN or POT disk file :      0.414 Mbytes.
================================================================================
 
 Biggest array : f_fftgr(disk), with      6.5938 MBytes.
 memana : allocated an array of      6.594 Mbytes, for testing purposes.
 memana: allocated      14.325Mbytes, for testing purposes. 
 The job will continue.
 
 DATASET   31 : space group P4/m m m (#123); Bravais tP (primitive tetrag.)
 
 getdim_nloc: deduce lmnmax  =   5, lnmax  =   3,
                      lmnmaxso=   5, lnmaxso=   3.
memory: analysis of memory needs
================================================================================
 Values of the parameters that define the memory need for DATASET 31.
     intxc =       0    ionmov =       2      iscf =       7    lmnmax =       3
     lnmax =       3     mgfft =      36  mpssoang =       2    mqgrid =    3001
     natom =       2  nloc_mem =       1    nspden =       1   nspinor =       1
    nsppol =       1      nsym =      16    n1xccc =       0    ntypat =       1
    occopt =       1   xclevel =       2
-    mband =           1        mffmem =           1         mkmem =           1
       mpw =        1277          nfft =       46656          nkpt =           1
================================================================================
P This job should need less than                      14.786 Mbytes of memory.
  Rough estimation (10% accuracy) of disk space for files :
_ WF disk file :      0.021 Mbytes ; DEN or POT disk file :      0.358 Mbytes.
================================================================================
 
 Biggest array : f_fftgr(disk), with      5.6973 MBytes.
 memana : allocated an array of      5.697 Mbytes, for testing purposes.
 memana: allocated      14.786Mbytes, for testing purposes. 
 The job will continue.
 
 DATASET   32 : space group Pm -3 m (#221); Bravais cP (primitive cubic)
 
 getdim_nloc: deduce lmnmax  =   5, lnmax  =   3,
                      lmnmaxso=   5, lnmaxso=   3.
memory: analysis of memory needs
================================================================================
 Values of the parameters that define the memory need for DATASET 32.
     intxc =       0    ionmov =       0      iscf =       7    lmnmax =       3
     lnmax =       3     mgfft =      36  mpssoang =       2    mqgrid =    3001
     natom =       1  nloc_mem =       1    nspden =       2   nspinor =       1
    nsppol =       2      nsym =      48    n1xccc =       0    ntypat =       1
    occopt =       2   xclevel =       2
-    mband =           1        mffmem =           1         mkmem =           1
       mpw =        1277          nfft =       46656          nkpt =           1
================================================================================
P This job should need less than                      24.407 Mbytes of memory.
  Rough estimation (10% accuracy) of disk space for files :
_ WF disk file :      0.041 Mbytes ; DEN or POT disk file :      0.714 Mbytes.
================================================================================
 
 Biggest array : f_fftgr(disk), with     11.3926 MBytes.
 memana : allocated an array of     11.393 Mbytes, for testing purposes.
 memana: allocated      24.407Mbytes, for testing purposes. 
 The job will continue.
 
 DATASET   41 : space group P4/m m m (#123); Bravais tP (primitive tetrag.)
 
 getdim_nloc: deduce lmnmax  =   5, lnmax  =   3,
                      lmnmaxso=   5, lnmaxso=   3.
memory: analysis of memory needs
================================================================================
 Values of the parameters that define the memory need for DATASET 41.
     intxc =       0    ionmov =       2      iscf =       7    lmnmax =       3
     lnmax =       3     mgfft =      40  mpssoang =       2    mqgrid =    3001
     natom =       2  nloc_mem =       1    nspden =       1   nspinor =       1
    nsppol =       1      nsym =      16    n1xccc =       0    ntypat =       1
    occopt =       1   xclevel =       2
-    mband =           1        mffmem =           1         mkmem =           1
       mpw =        2070          nfft =       64000          nkpt =           1
================================================================================
P This job should need less than                      20.110 Mbytes of memory.
  Rough estimation (10% accuracy) of disk space for files :
_ WF disk file :      0.034 Mbytes ; DEN or POT disk file :      0.490 Mbytes.
================================================================================
 
 Biggest array : f_fftgr(disk), with      7.8145 MBytes.
 memana : allocated an array of      7.815 Mbytes, for testing purposes.
 memana: allocated      20.110Mbytes, for testing purposes. 
 The job will continue.
 
 DATASET   42 : space group Pm -3 m (#221); Bravais cP (primitive cubic)
 
 getdim_nloc: deduce lmnmax  =   5, lnmax  =   3,
                      lmnmaxso=   5, lnmaxso=   3.
memory: analysis of memory needs
================================================================================
 Values of the parameters that define the memory need for DATASET 42.
     intxc =       0    ionmov =       0      iscf =       7    lmnmax =       3
     lnmax =       3     mgfft =      40  mpssoang =       2    mqgrid =    3001
     natom =       1  nloc_mem =       1    nspden =       2   nspinor =       1
    nsppol =       2      nsym =      48    n1xccc =       0    ntypat =       1
    occopt =       2   xclevel =       2
-    mband =           1        mffmem =           1         mkmem =           1
       mpw =        2070          nfft =       64000          nkpt =           1
================================================================================
P This job should need less than                      33.316 Mbytes of memory.
  Rough estimation (10% accuracy) of disk space for files :
_ WF disk file :      0.065 Mbytes ; DEN or POT disk file :      0.979 Mbytes.
================================================================================
 
 Biggest array : f_fftgr(disk), with     15.6270 MBytes.
 memana : allocated an array of     15.627 Mbytes, for testing purposes.
 memana: allocated      33.316Mbytes, for testing purposes. 
 The job will continue.
 
 DATASET   51 : space group P4/m m m (#123); Bravais tP (primitive tetrag.)
 
 getdim_nloc: deduce lmnmax  =   5, lnmax  =   3,
                      lmnmaxso=   5, lnmaxso=   3.
memory: analysis of memory needs
================================================================================
 Values of the parameters that define the memory need for DATASET 51.
     intxc =       0    ionmov =       2      iscf =       7    lmnmax =       3
     lnmax =       3     mgfft =      48  mpssoang =       2    mqgrid =    3001
     natom =       2  nloc_mem =       1    nspden =       1   nspinor =       1
    nsppol =       1      nsym =      16    n1xccc =       0    ntypat =       1
    occopt =       1   xclevel =       2
-    mband =           1        mffmem =           1         mkmem =           1
       mpw =        3094          nfft =      110592          nkpt =           1
================================================================================
P This job should need less than                      34.380 Mbytes of memory.
  Rough estimation (10% accuracy) of disk space for files :
_ WF disk file :      0.049 Mbytes ; DEN or POT disk file :      0.846 Mbytes.
================================================================================
 
 Biggest array : f_fftgr(disk), with     13.5020 MBytes.
 memana : allocated an array of     13.502 Mbytes, for testing purposes.
 memana: allocated      34.380Mbytes, for testing purposes. 
 The job will continue.
 
 DATASET   52 : space group Pm -3 m (#221); Bravais cP (primitive cubic)
 
 getdim_nloc: deduce lmnmax  =   5, lnmax  =   3,
                      lmnmaxso=   5, lnmaxso=   3.
memory: analysis of memory needs
================================================================================
 Values of the parameters that define the memory need for DATASET 52.
     intxc =       0    ionmov =       0      iscf =       7    lmnmax =       3
     lnmax =       3     mgfft =      48  mpssoang =       2    mqgrid =    3001
     natom =       1  nloc_mem =       1    nspden =       2   nspinor =       1
    nsppol =       2      nsym =      48    n1xccc =       0    ntypat =       1
    occopt =       2   xclevel =       2
-    mband =           1        mffmem =           1         mkmem =           1
       mpw =        3094          nfft =      110592          nkpt =           1
================================================================================
P This job should need less than                      57.198 Mbytes of memory.
  Rough estimation (10% accuracy) of disk space for files :
_ WF disk file :      0.096 Mbytes ; DEN or POT disk file :      1.690 Mbytes.
================================================================================
 
 Biggest array : f_fftgr(disk), with     27.0020 MBytes.
 memana : allocated an array of     27.002 Mbytes, for testing purposes.
 memana: allocated      57.198Mbytes, for testing purposes. 
 The job will continue.
 
 DATASET   61 : space group P4/m m m (#123); Bravais tP (primitive tetrag.)
 
 getdim_nloc: deduce lmnmax  =   5, lnmax  =   3,
                      lmnmaxso=   5, lnmaxso=   3.
memory: analysis of memory needs
================================================================================
 Values of the parameters that define the memory need for DATASET 61.
     intxc =       0    ionmov =       2      iscf =       7    lmnmax =       3
     lnmax =       3     mgfft =      54  mpssoang =       2    mqgrid =    3001
     natom =       2  nloc_mem =       1    nspden =       1   nspinor =       1
    nsppol =       1      nsym =      16    n1xccc =       0    ntypat =       1
    occopt =       1   xclevel =       2
-    mband =           1        mffmem =           1         mkmem =           1
       mpw =        4415          nfft =      157464          nkpt =           1
================================================================================
P This job should need less than                      48.739 Mbytes of memory.
  Rough estimation (10% accuracy) of disk space for files :
_ WF disk file :      0.069 Mbytes ; DEN or POT disk file :      1.203 Mbytes.
================================================================================
 
 Biggest array : f_fftgr(disk), with     19.2237 MBytes.
 memana : allocated an array of     19.224 Mbytes, for testing purposes.
 memana: allocated      48.739Mbytes, for testing purposes. 
 The job will continue.
 
 DATASET   62 : space group Pm -3 m (#221); Bravais cP (primitive cubic)
 
 getdim_nloc: deduce lmnmax  =   5, lnmax  =   3,
                      lmnmaxso=   5, lnmaxso=   3.
memory: analysis of memory needs
================================================================================
 Values of the parameters that define the memory need for DATASET 62.
     intxc =       0    ionmov =       0      iscf =       7    lmnmax =       3
     lnmax =       3     mgfft =      54  mpssoang =       2    mqgrid =    3001
     natom =       1  nloc_mem =       1    nspden =       2   nspinor =       1
    nsppol =       2      nsym =      48    n1xccc =       0    ntypat =       1
    occopt =       2   xclevel =       2
-    mband =           1        mffmem =           1         mkmem =           1
       mpw =        4415          nfft =      157464          nkpt =           1
================================================================================
P This job should need less than                      81.232 Mbytes of memory.
  Rough estimation (10% accuracy) of disk space for files :
_ WF disk file :      0.137 Mbytes ; DEN or POT disk file :      2.405 Mbytes.
================================================================================
 
 Biggest array : f_fftgr(disk), with     38.4454 MBytes.
 memana : allocated an array of     38.445 Mbytes, for testing purposes.
 memana: allocated      81.232Mbytes, for testing purposes. 
 The job will continue.
 
--- !COMMENT
src_file: m_outvars.F90
src_line: 202
message: |
    output of OUT.nc has been disabled. Too many datasets
...
 
--------------------------------------------------------------------------------
------------- Echo of variables that govern the present computation ------------
--------------------------------------------------------------------------------
-
- outvars: echo of selected default values                                      
-   iomode0 =  0 , fftalg0 =512 , wfoptalg0 =  0
-
- outvars: echo of global parameters not present in the input file              
-  max_nthreads =    0
-
 -outvars: echo values of preprocessed input variables --------
 
--- !COMMENT
src_file: m_outvars.F90
src_line: 202
message: |
    output of OUT.nc has been disabled. Too many datasets
...
 
            acell11    8.0000000000E+00  8.0000000000E+00  8.0000000000E+00 Bohr
            acell12    8.0000000000E+00  8.0000000000E+00  8.0000000000E+00 Bohr
            acell21    1.0000000000E+01  1.0000000000E+01  1.0000000000E+01 Bohr
            acell22    1.0000000000E+01  1.0000000000E+01  1.0000000000E+01 Bohr
            acell31    1.2000000000E+01  1.2000000000E+01  1.2000000000E+01 Bohr
            acell32    1.2000000000E+01  1.2000000000E+01  1.2000000000E+01 Bohr
            acell41    1.4000000000E+01  1.4000000000E+01  1.4000000000E+01 Bohr
            acell42    1.4000000000E+01  1.4000000000E+01  1.4000000000E+01 Bohr
            acell51    1.6000000000E+01  1.6000000000E+01  1.6000000000E+01 Bohr
            acell52    1.6000000000E+01  1.6000000000E+01  1.6000000000E+01 Bohr
            acell61    1.8000000000E+01  1.8000000000E+01  1.8000000000E+01 Bohr
            acell62    1.8000000000E+01  1.8000000000E+01  1.8000000000E+01 Bohr
              amu      1.00794000E+00
        bs_loband11         0
        bs_loband12         0       0
        bs_loband21         0
        bs_loband22         0       0
        bs_loband31         0
        bs_loband32         0       0
        bs_loband41         0
        bs_loband42         0       0
        bs_loband51         0
        bs_loband52         0       0
        bs_loband61         0
        bs_loband62         0       0
           diemac      2.00000000E+00
             ecut      1.00000000E+01 Hartree
-          fftalg         512
           ionmov11         2
           ionmov12         0
           ionmov21         2
           ionmov22         0
           ionmov31         2
           ionmov32         0
           ionmov41         2
           ionmov42         0
           ionmov51         2
           ionmov52         0
           ionmov61         2
           ionmov62         0
           istwfk        2
              ixc          11
           jdtset       11   12   21   22   31   32   41   42   51   52
                        61   62
           kptopt           0
P           mkmem           1
            natom11         2
            natom12         1
            natom21         2
            natom22         1
            natom31         2
            natom32         1
            natom41         2
            natom42         1
            natom51         2
            natom52         1
            natom61         2
            natom62         1
            nband11         1
            nband12         1       1
            nband21         1
            nband22         1       1
            nband31         1
            nband32         1       1
            nband41         1
            nband42         1       1
            nband51         1
            nband52         1       1
            nband61         1
            nband62         1       1
           ndtset          12
            ngfft11        24      24      24
            ngfft12        24      24      24
            ngfft21        30      30      30
            ngfft22        30      30      30
            ngfft31        36      36      36
            ngfft32        36      36      36
            ngfft41        40      40      40
            ngfft42        40      40      40
            ngfft51        48      48      48
            ngfft52        48      48      48
            ngfft61        54      54      54
            ngfft62        54      54      54
             nkpt           1
           nspden11         1
           nspden12         2
           nspden21         1
           nspden22         2
           nspden31         1
           nspden32         2
           nspden41         1
           nspden42         2
           nspden51         1
           nspden52         2
           nspden61         1
           nspden62         2
           nsppol11         1
           nsppol12         2
           nsppol21         1
           nsppol22         2
           nsppol31         1
           nsppol32         2
           nsppol41         1
           nsppol42         2
           nsppol51         1
           nsppol52         2
           nsppol61         1
           nsppol62         2
            nstep          10
             nsym11        16
             nsym12        48
             nsym21        16
             nsym22        48
             nsym31        16
             nsym32        48
             nsym41        16
             nsym42        48
             nsym51        16
             nsym52        48
             nsym61        16
             nsym62        48
            ntime11        10
            ntime12         1
            ntime21        10
            ntime22         1
            ntime31        10
            ntime32         1
            ntime41        10
            ntime42         1
            ntime51        10
            ntime52         1
            ntime61        10
            ntime62         1
           ntypat           1
              occ11    2.000000
              occ12    1.000000
                       0.000000
              occ21    2.000000
              occ22    1.000000
                       0.000000
              occ31    2.000000
              occ32    1.000000
                       0.000000
              occ41    2.000000
              occ42    1.000000
                       0.000000
              occ51    2.000000
              occ52    1.000000
                       0.000000
              occ61    2.000000
              occ62    1.000000
                       0.000000
           occopt11         1
           occopt12         2
           occopt21         1
           occopt22         2
           occopt31         1
           occopt32         2
           occopt41         1
           occopt42         2
           occopt51         1
           occopt52         2
           occopt61         1
           occopt62         2
        optforces11         1
        optforces12         2
        optforces21         1
        optforces22         2
        optforces31         1
        optforces32         2
        optforces41         1
        optforces42         2
        optforces51         1
        optforces52         2
        optforces61         1
        optforces62         2
          spgroup11       123
          spgroup12       221
          spgroup21       123
          spgroup22       221
          spgroup31       123
          spgroup32       221
          spgroup41       123
          spgroup42       221
          spgroup51       123
          spgroup52       221
          spgroup61       123
          spgroup62       221
           spinat12    0.0000000000E+00  0.0000000000E+00  1.0000000000E+00
           spinat22    0.0000000000E+00  0.0000000000E+00  1.0000000000E+00
           spinat32    0.0000000000E+00  0.0000000000E+00  1.0000000000E+00
           spinat42    0.0000000000E+00  0.0000000000E+00  1.0000000000E+00
           spinat52    0.0000000000E+00  0.0000000000E+00  1.0000000000E+00
           spinat62    0.0000000000E+00  0.0000000000E+00  1.0000000000E+00
           symafm11      1    1    1    1    1    1    1    1    1    1
                         1    1    1    1    1    1
           symafm12      1    1    1    1    1    1    1    1    1    1
                         1    1    1    1    1    1    1    1    1    1
                         1    1    1    1    1    1    1    1    1    1
                         1    1    1    1    1    1    1    1    1    1
                         1    1    1    1    1    1    1    1
           symafm21      1    1    1    1    1    1    1    1    1    1
                         1    1    1    1    1    1
           symafm22      1    1    1    1    1    1    1    1    1    1
                         1    1    1    1    1    1    1    1    1    1
                         1    1    1    1    1    1    1    1    1    1
                         1    1    1    1    1    1    1    1    1    1
                         1    1    1    1    1    1    1    1
           symafm31      1    1    1    1    1    1    1    1    1    1
                         1    1    1    1    1    1
           symafm32      1    1    1    1    1    1    1    1    1    1
                         1    1    1    1    1    1    1    1    1    1
                         1    1    1    1    1    1    1    1    1    1
                         1    1    1    1    1    1    1    1    1    1
                         1    1    1    1    1    1    1    1
           symafm41      1    1    1    1    1    1    1    1    1    1
                         1    1    1    1    1    1
           symafm42      1    1    1    1    1    1    1    1    1    1
                         1    1    1    1    1    1    1    1    1    1
                         1    1    1    1    1    1    1    1    1    1
                         1    1    1    1    1    1    1    1    1    1
                         1    1    1    1    1    1    1    1
           symafm51      1    1    1    1    1    1    1    1    1    1
                         1    1    1    1    1    1
           symafm52      1    1    1    1    1    1    1    1    1    1
                         1    1    1    1    1    1    1    1    1    1
                         1    1    1    1    1    1    1    1    1    1
                         1    1    1    1    1    1    1    1    1    1
                         1    1    1    1    1    1    1    1
           symafm61      1    1    1    1    1    1    1    1    1    1
                         1    1    1    1    1    1
           symafm62      1    1    1    1    1    1    1    1    1    1
                         1    1    1    1    1    1    1    1    1    1
                         1    1    1    1    1    1    1    1    1    1
                         1    1    1    1    1    1    1    1    1    1
                         1    1    1    1    1    1    1    1
           symrel11    1  0  0   0  1  0   0  0  1      -1  0  0   0 -1  0   0  0 -1
                      -1  0  0   0  1  0   0  0 -1       1  0  0   0 -1  0   0  0  1
                      -1  0  0   0 -1  0   0  0  1       1  0  0   0  1  0   0  0 -1
                       1  0  0   0 -1  0   0  0 -1      -1  0  0   0  1  0   0  0  1
                       1  0  0   0  0  1   0  1  0      -1  0  0   0  0 -1   0 -1  0
                      -1  0  0   0  0  1   0 -1  0       1  0  0   0  0 -1   0  1  0
                      -1  0  0   0  0 -1   0  1  0       1  0  0   0  0  1   0 -1  0
                       1  0  0   0  0 -1   0 -1  0      -1  0  0   0  0  1   0  1  0
           symrel12    1  0  0   0  1  0   0  0  1      -1  0  0   0 -1  0   0  0 -1
                      -1  0  0   0  1  0   0  0 -1       1  0  0   0 -1  0   0  0  1
                      -1  0  0   0 -1  0   0  0  1       1  0  0   0  1  0   0  0 -1
                       1  0  0   0 -1  0   0  0 -1      -1  0  0   0  1  0   0  0  1
                       0  1  0   1  0  0   0  0  1       0 -1  0  -1  0  0   0  0 -1
                       0 -1  0   1  0  0   0  0 -1       0  1  0  -1  0  0   0  0  1
                       0 -1  0  -1  0  0   0  0  1       0  1  0   1  0  0   0  0 -1
                       0  1  0  -1  0  0   0  0 -1       0 -1  0   1  0  0   0  0  1
                       0  0  1   1  0  0   0  1  0       0  0 -1  -1  0  0   0 -1  0
                       0  0 -1   1  0  0   0 -1  0       0  0  1  -1  0  0   0  1  0
                       0  0 -1  -1  0  0   0  1  0       0  0  1   1  0  0   0 -1  0
                       0  0  1  -1  0  0   0 -1  0       0  0 -1   1  0  0   0  1  0
                       1  0  0   0  0  1   0  1  0      -1  0  0   0  0 -1   0 -1  0
                      -1  0  0   0  0  1   0 -1  0       1  0  0   0  0 -1   0  1  0
                      -1  0  0   0  0 -1   0  1  0       1  0  0   0  0  1   0 -1  0
                       1  0  0   0  0 -1   0 -1  0      -1  0  0   0  0  1   0  1  0
                       0  1  0   0  0  1   1  0  0       0 -1  0   0  0 -1  -1  0  0
                       0 -1  0   0  0  1  -1  0  0       0  1  0   0  0 -1   1  0  0
                       0 -1  0   0  0 -1   1  0  0       0  1  0   0  0  1  -1  0  0
                       0  1  0   0  0 -1  -1  0  0       0 -1  0   0  0  1   1  0  0
                       0  0  1   0  1  0   1  0  0       0  0 -1   0 -1  0  -1  0  0
                       0  0 -1   0  1  0  -1  0  0       0  0  1   0 -1  0   1  0  0
                       0  0 -1   0 -1  0   1  0  0       0  0  1   0  1  0  -1  0  0
                       0  0  1   0 -1  0  -1  0  0       0  0 -1   0  1  0   1  0  0
           symrel21    1  0  0   0  1  0   0  0  1      -1  0  0   0 -1  0   0  0 -1
                      -1  0  0   0  1  0   0  0 -1       1  0  0   0 -1  0   0  0  1
                      -1  0  0   0 -1  0   0  0  1       1  0  0   0  1  0   0  0 -1
                       1  0  0   0 -1  0   0  0 -1      -1  0  0   0  1  0   0  0  1
                       1  0  0   0  0  1   0  1  0      -1  0  0   0  0 -1   0 -1  0
                      -1  0  0   0  0  1   0 -1  0       1  0  0   0  0 -1   0  1  0
                      -1  0  0   0  0 -1   0  1  0       1  0  0   0  0  1   0 -1  0
                       1  0  0   0  0 -1   0 -1  0      -1  0  0   0  0  1   0  1  0
           symrel22    1  0  0   0  1  0   0  0  1      -1  0  0   0 -1  0   0  0 -1
                      -1  0  0   0  1  0   0  0 -1       1  0  0   0 -1  0   0  0  1
                      -1  0  0   0 -1  0   0  0  1       1  0  0   0  1  0   0  0 -1
                       1  0  0   0 -1  0   0  0 -1      -1  0  0   0  1  0   0  0  1
                       0  1  0   1  0  0   0  0  1       0 -1  0  -1  0  0   0  0 -1
                       0 -1  0   1  0  0   0  0 -1       0  1  0  -1  0  0   0  0  1
                       0 -1  0  -1  0  0   0  0  1       0  1  0   1  0  0   0  0 -1
                       0  1  0  -1  0  0   0  0 -1       0 -1  0   1  0  0   0  0  1
                       0  0  1   1  0  0   0  1  0       0  0 -1  -1  0  0   0 -1  0
                       0  0 -1   1  0  0   0 -1  0       0  0  1  -1  0  0   0  1  0
                       0  0 -1  -1  0  0   0  1  0       0  0  1   1  0  0   0 -1  0
                       0  0  1  -1  0  0   0 -1  0       0  0 -1   1  0  0   0  1  0
                       1  0  0   0  0  1   0  1  0      -1  0  0   0  0 -1   0 -1  0
                      -1  0  0   0  0  1   0 -1  0       1  0  0   0  0 -1   0  1  0
                      -1  0  0   0  0 -1   0  1  0       1  0  0   0  0  1   0 -1  0
                       1  0  0   0  0 -1   0 -1  0      -1  0  0   0  0  1   0  1  0
                       0  1  0   0  0  1   1  0  0       0 -1  0   0  0 -1  -1  0  0
                       0 -1  0   0  0  1  -1  0  0       0  1  0   0  0 -1   1  0  0
                       0 -1  0   0  0 -1   1  0  0       0  1  0   0  0  1  -1  0  0
                       0  1  0   0  0 -1  -1  0  0       0 -1  0   0  0  1   1  0  0
                       0  0  1   0  1  0   1  0  0       0  0 -1   0 -1  0  -1  0  0
                       0  0 -1   0  1  0  -1  0  0       0  0  1   0 -1  0   1  0  0
                       0  0 -1   0 -1  0   1  0  0       0  0  1   0  1  0  -1  0  0
                       0  0  1   0 -1  0  -1  0  0       0  0 -1   0  1  0   1  0  0
           symrel31    1  0  0   0  1  0   0  0  1      -1  0  0   0 -1  0   0  0 -1
                      -1  0  0   0  1  0   0  0 -1       1  0  0   0 -1  0   0  0  1
                      -1  0  0   0 -1  0   0  0  1       1  0  0   0  1  0   0  0 -1
                       1  0  0   0 -1  0   0  0 -1      -1  0  0   0  1  0   0  0  1
                       1  0  0   0  0  1   0  1  0      -1  0  0   0  0 -1   0 -1  0
                      -1  0  0   0  0  1   0 -1  0       1  0  0   0  0 -1   0  1  0
                      -1  0  0   0  0 -1   0  1  0       1  0  0   0  0  1   0 -1  0
                       1  0  0   0  0 -1   0 -1  0      -1  0  0   0  0  1   0  1  0
           symrel32    1  0  0   0  1  0   0  0  1      -1  0  0   0 -1  0   0  0 -1
                      -1  0  0   0  1  0   0  0 -1       1  0  0   0 -1  0   0  0  1
                      -1  0  0   0 -1  0   0  0  1       1  0  0   0  1  0   0  0 -1
                       1  0  0   0 -1  0   0  0 -1      -1  0  0   0  1  0   0  0  1
                       0  1  0   1  0  0   0  0  1       0 -1  0  -1  0  0   0  0 -1
                       0 -1  0   1  0  0   0  0 -1       0  1  0  -1  0  0   0  0  1
                       0 -1  0  -1  0  0   0  0  1       0  1  0   1  0  0   0  0 -1
                       0  1  0  -1  0  0   0  0 -1       0 -1  0   1  0  0   0  0  1
                       0  0  1   1  0  0   0  1  0       0  0 -1  -1  0  0   0 -1  0
                       0  0 -1   1  0  0   0 -1  0       0  0  1  -1  0  0   0  1  0
                       0  0 -1  -1  0  0   0  1  0       0  0  1   1  0  0   0 -1  0
                       0  0  1  -1  0  0   0 -1  0       0  0 -1   1  0  0   0  1  0
                       1  0  0   0  0  1   0  1  0      -1  0  0   0  0 -1   0 -1  0
                      -1  0  0   0  0  1   0 -1  0       1  0  0   0  0 -1   0  1  0
                      -1  0  0   0  0 -1   0  1  0       1  0  0   0  0  1   0 -1  0
                       1  0  0   0  0 -1   0 -1  0      -1  0  0   0  0  1   0  1  0
                       0  1  0   0  0  1   1  0  0       0 -1  0   0  0 -1  -1  0  0
                       0 -1  0   0  0  1  -1  0  0       0  1  0   0  0 -1   1  0  0
                       0 -1  0   0  0 -1   1  0  0       0  1  0   0  0  1  -1  0  0
                       0  1  0   0  0 -1  -1  0  0       0 -1  0   0  0  1   1  0  0
                       0  0  1   0  1  0   1  0  0       0  0 -1   0 -1  0  -1  0  0
                       0  0 -1   0  1  0  -1  0  0       0  0  1   0 -1  0   1  0  0
                       0  0 -1   0 -1  0   1  0  0       0  0  1   0  1  0  -1  0  0
                       0  0  1   0 -1  0  -1  0  0       0  0 -1   0  1  0   1  0  0
           symrel41    1  0  0   0  1  0   0  0  1      -1  0  0   0 -1  0   0  0 -1
                      -1  0  0   0  1  0   0  0 -1       1  0  0   0 -1  0   0  0  1
                      -1  0  0   0 -1  0   0  0  1       1  0  0   0  1  0   0  0 -1
                       1  0  0   0 -1  0   0  0 -1      -1  0  0   0  1  0   0  0  1
                       1  0  0   0  0  1   0  1  0      -1  0  0   0  0 -1   0 -1  0
                      -1  0  0   0  0  1   0 -1  0       1  0  0   0  0 -1   0  1  0
                      -1  0  0   0  0 -1   0  1  0       1  0  0   0  0  1   0 -1  0
                       1  0  0   0  0 -1   0 -1  0      -1  0  0   0  0  1   0  1  0
           symrel42    1  0  0   0  1  0   0  0  1      -1  0  0   0 -1  0   0  0 -1
                      -1  0  0   0  1  0   0  0 -1       1  0  0   0 -1  0   0  0  1
                      -1  0  0   0 -1  0   0  0  1       1  0  0   0  1  0   0  0 -1
                       1  0  0   0 -1  0   0  0 -1      -1  0  0   0  1  0   0  0  1
                       0  1  0   1  0  0   0  0  1       0 -1  0  -1  0  0   0  0 -1
                       0 -1  0   1  0  0   0  0 -1       0  1  0  -1  0  0   0  0  1
                       0 -1  0  -1  0  0   0  0  1       0  1  0   1  0  0   0  0 -1
                       0  1  0  -1  0  0   0  0 -1       0 -1  0   1  0  0   0  0  1
                       0  0  1   1  0  0   0  1  0       0  0 -1  -1  0  0   0 -1  0
                       0  0 -1   1  0  0   0 -1  0       0  0  1  -1  0  0   0  1  0
                       0  0 -1  -1  0  0   0  1  0       0  0  1   1  0  0   0 -1  0
                       0  0  1  -1  0  0   0 -1  0       0  0 -1   1  0  0   0  1  0
                       1  0  0   0  0  1   0  1  0      -1  0  0   0  0 -1   0 -1  0
                      -1  0  0   0  0  1   0 -1  0       1  0  0   0  0 -1   0  1  0
                      -1  0  0   0  0 -1   0  1  0       1  0  0   0  0  1   0 -1  0
                       1  0  0   0  0 -1   0 -1  0      -1  0  0   0  0  1   0  1  0
                       0  1  0   0  0  1   1  0  0       0 -1  0   0  0 -1  -1  0  0
                       0 -1  0   0  0  1  -1  0  0       0  1  0   0  0 -1   1  0  0
                       0 -1  0   0  0 -1   1  0  0       0  1  0   0  0  1  -1  0  0
                       0  1  0   0  0 -1  -1  0  0       0 -1  0   0  0  1   1  0  0
                       0  0  1   0  1  0   1  0  0       0  0 -1   0 -1  0  -1  0  0
                       0  0 -1   0  1  0  -1  0  0       0  0  1   0 -1  0   1  0  0
                       0  0 -1   0 -1  0   1  0  0       0  0  1   0  1  0  -1  0  0
                       0  0  1   0 -1  0  -1  0  0       0  0 -1   0  1  0   1  0  0
           symrel51    1  0  0   0  1  0   0  0  1      -1  0  0   0 -1  0   0  0 -1
                      -1  0  0   0  1  0   0  0 -1       1  0  0   0 -1  0   0  0  1
                      -1  0  0   0 -1  0   0  0  1       1  0  0   0  1  0   0  0 -1
                       1  0  0   0 -1  0   0  0 -1      -1  0  0   0  1  0   0  0  1
                       1  0  0   0  0  1   0  1  0      -1  0  0   0  0 -1   0 -1  0
                      -1  0  0   0  0  1   0 -1  0       1  0  0   0  0 -1   0  1  0
                      -1  0  0   0  0 -1   0  1  0       1  0  0   0  0  1   0 -1  0
                       1  0  0   0  0 -1   0 -1  0      -1  0  0   0  0  1   0  1  0
           symrel52    1  0  0   0  1  0   0  0  1      -1  0  0   0 -1  0   0  0 -1
                      -1  0  0   0  1  0   0  0 -1       1  0  0   0 -1  0   0  0  1
                      -1  0  0   0 -1  0   0  0  1       1  0  0   0  1  0   0  0 -1
                       1  0  0   0 -1  0   0  0 -1      -1  0  0   0  1  0   0  0  1
                       0  1  0   1  0  0   0  0  1       0 -1  0  -1  0  0   0  0 -1
                       0 -1  0   1  0  0   0  0 -1       0  1  0  -1  0  0   0  0  1
                       0 -1  0  -1  0  0   0  0  1       0  1  0   1  0  0   0  0 -1
                       0  1  0  -1  0  0   0  0 -1       0 -1  0   1  0  0   0  0  1
                       0  0  1   1  0  0   0  1  0       0  0 -1  -1  0  0   0 -1  0
                       0  0 -1   1  0  0   0 -1  0       0  0  1  -1  0  0   0  1  0
                       0  0 -1  -1  0  0   0  1  0       0  0  1   1  0  0   0 -1  0
                       0  0  1  -1  0  0   0 -1  0       0  0 -1   1  0  0   0  1  0
                       1  0  0   0  0  1   0  1  0      -1  0  0   0  0 -1   0 -1  0
                      -1  0  0   0  0  1   0 -1  0       1  0  0   0  0 -1   0  1  0
                      -1  0  0   0  0 -1   0  1  0       1  0  0   0  0  1   0 -1  0
                       1  0  0   0  0 -1   0 -1  0      -1  0  0   0  0  1   0  1  0
                       0  1  0   0  0  1   1  0  0       0 -1  0   0  0 -1  -1  0  0
                       0 -1  0   0  0  1  -1  0  0       0  1  0   0  0 -1   1  0  0
                       0 -1  0   0  0 -1   1  0  0       0  1  0   0  0  1  -1  0  0
                       0  1  0   0  0 -1  -1  0  0       0 -1  0   0  0  1   1  0  0
                       0  0  1   0  1  0   1  0  0       0  0 -1   0 -1  0  -1  0  0
                       0  0 -1   0  1  0  -1  0  0       0  0  1   0 -1  0   1  0  0
                       0  0 -1   0 -1  0   1  0  0       0  0  1   0  1  0  -1  0  0
                       0  0  1   0 -1  0  -1  0  0       0  0 -1   0  1  0   1  0  0
           symrel61    1  0  0   0  1  0   0  0  1      -1  0  0   0 -1  0   0  0 -1
                      -1  0  0   0  1  0   0  0 -1       1  0  0   0 -1  0   0  0  1
                      -1  0  0   0 -1  0   0  0  1       1  0  0   0  1  0   0  0 -1
                       1  0  0   0 -1  0   0  0 -1      -1  0  0   0  1  0   0  0  1
                       1  0  0   0  0  1   0  1  0      -1  0  0   0  0 -1   0 -1  0
                      -1  0  0   0  0  1   0 -1  0       1  0  0   0  0 -1   0  1  0
                      -1  0  0   0  0 -1   0  1  0       1  0  0   0  0  1   0 -1  0
                       1  0  0   0  0 -1   0 -1  0      -1  0  0   0  0  1   0  1  0
           symrel62    1  0  0   0  1  0   0  0  1      -1  0  0   0 -1  0   0  0 -1
                      -1  0  0   0  1  0   0  0 -1       1  0  0   0 -1  0   0  0  1
                      -1  0  0   0 -1  0   0  0  1       1  0  0   0  1  0   0  0 -1
                       1  0  0   0 -1  0   0  0 -1      -1  0  0   0  1  0   0  0  1
                       0  1  0   1  0  0   0  0  1       0 -1  0  -1  0  0   0  0 -1
                       0 -1  0   1  0  0   0  0 -1       0  1  0  -1  0  0   0  0  1
                       0 -1  0  -1  0  0   0  0  1       0  1  0   1  0  0   0  0 -1
                       0  1  0  -1  0  0   0  0 -1       0 -1  0   1  0  0   0  0  1
                       0  0  1   1  0  0   0  1  0       0  0 -1  -1  0  0   0 -1  0
                       0  0 -1   1  0  0   0 -1  0       0  0  1  -1  0  0   0  1  0
                       0  0 -1  -1  0  0   0  1  0       0  0  1   1  0  0   0 -1  0
                       0  0  1  -1  0  0   0 -1  0       0  0 -1   1  0  0   0  1  0
                       1  0  0   0  0  1   0  1  0      -1  0  0   0  0 -1   0 -1  0
                      -1  0  0   0  0  1   0 -1  0       1  0  0   0  0 -1   0  1  0
                      -1  0  0   0  0 -1   0  1  0       1  0  0   0  0  1   0 -1  0
                       1  0  0   0  0 -1   0 -1  0      -1  0  0   0  0  1   0  1  0
                       0  1  0   0  0  1   1  0  0       0 -1  0   0  0 -1  -1  0  0
                       0 -1  0   0  0  1  -1  0  0       0  1  0   0  0 -1   1  0  0
                       0 -1  0   0  0 -1   1  0  0       0  1  0   0  0  1  -1  0  0
                       0  1  0   0  0 -1  -1  0  0       0 -1  0   0  0  1   1  0  0
                       0  0  1   0  1  0   1  0  0       0  0 -1   0 -1  0  -1  0  0
                       0  0 -1   0  1  0  -1  0  0       0  0  1   0 -1  0   1  0  0
                       0  0 -1   0 -1  0   1  0  0       0  0  1   0  1  0  -1  0  0
                       0  0  1   0 -1  0  -1  0  0       0  0 -1   0  1  0   1  0  0
            tnons11    0.0000000  0.0000000  0.0000000     0.0000000  0.0000000  0.0000000
                       0.0000000  0.0000000  0.0000000     0.0000000  0.0000000  0.0000000
                       0.0000000  0.0000000  0.0000000     0.0000000  0.0000000  0.0000000
                       0.0000000  0.0000000  0.0000000     0.0000000  0.0000000  0.0000000
                       0.0000000  0.0000000  0.0000000     0.0000000  0.0000000  0.0000000
                       0.0000000  0.0000000  0.0000000     0.0000000  0.0000000  0.0000000
                       0.0000000  0.0000000  0.0000000     0.0000000  0.0000000  0.0000000
                       0.0000000  0.0000000  0.0000000     0.0000000  0.0000000  0.0000000
            tnons12    0.0000000  0.0000000  0.0000000     0.0000000  0.0000000  0.0000000
                       0.0000000  0.0000000  0.0000000     0.0000000  0.0000000  0.0000000
                       0.0000000  0.0000000  0.0000000     0.0000000  0.0000000  0.0000000
                       0.0000000  0.0000000  0.0000000     0.0000000  0.0000000  0.0000000
                       0.0000000  0.0000000  0.0000000     0.0000000  0.0000000  0.0000000
                       0.0000000  0.0000000  0.0000000     0.0000000  0.0000000  0.0000000
                       0.0000000  0.0000000  0.0000000     0.0000000  0.0000000  0.0000000
                       0.0000000  0.0000000  0.0000000     0.0000000  0.0000000  0.0000000
                       0.0000000  0.0000000  0.0000000     0.0000000  0.0000000  0.0000000
                       0.0000000  0.0000000  0.0000000     0.0000000  0.0000000  0.0000000
                       0.0000000  0.0000000  0.0000000     0.0000000  0.0000000  0.0000000
                       0.0000000  0.0000000  0.0000000     0.0000000  0.0000000  0.0000000
                       0.0000000  0.0000000  0.0000000     0.0000000  0.0000000  0.0000000
                       0.0000000  0.0000000  0.0000000     0.0000000  0.0000000  0.0000000
                       0.0000000  0.0000000  0.0000000     0.0000000  0.0000000  0.0000000
                       0.0000000  0.0000000  0.0000000     0.0000000  0.0000000  0.0000000
                       0.0000000  0.0000000  0.0000000     0.0000000  0.0000000  0.0000000
                       0.0000000  0.0000000  0.0000000     0.0000000  0.0000000  0.0000000
                       0.0000000  0.0000000  0.0000000     0.0000000  0.0000000  0.0000000
                       0.0000000  0.0000000  0.0000000     0.0000000  0.0000000  0.0000000
                       0.0000000  0.0000000  0.0000000     0.0000000  0.0000000  0.0000000
                       0.0000000  0.0000000  0.0000000     0.0000000  0.0000000  0.0000000
                       0.0000000  0.0000000  0.0000000     0.0000000  0.0000000  0.0000000
                       0.0000000  0.0000000  0.0000000     0.0000000  0.0000000  0.0000000
            tnons21    0.0000000  0.0000000  0.0000000     0.0000000  0.0000000  0.0000000
                       0.0000000  0.0000000  0.0000000     0.0000000  0.0000000  0.0000000
                       0.0000000  0.0000000  0.0000000     0.0000000  0.0000000  0.0000000
                       0.0000000  0.0000000  0.0000000     0.0000000  0.0000000  0.0000000
                       0.0000000  0.0000000  0.0000000     0.0000000  0.0000000  0.0000000
                       0.0000000  0.0000000  0.0000000     0.0000000  0.0000000  0.0000000
                       0.0000000  0.0000000  0.0000000     0.0000000  0.0000000  0.0000000
                       0.0000000  0.0000000  0.0000000     0.0000000  0.0000000  0.0000000
            tnons22    0.0000000  0.0000000  0.0000000     0.0000000  0.0000000  0.0000000
                       0.0000000  0.0000000  0.0000000     0.0000000  0.0000000  0.0000000
                       0.0000000  0.0000000  0.0000000     0.0000000  0.0000000  0.0000000
                       0.0000000  0.0000000  0.0000000     0.0000000  0.0000000  0.0000000
                       0.0000000  0.0000000  0.0000000     0.0000000  0.0000000  0.0000000
                       0.0000000  0.0000000  0.0000000     0.0000000  0.0000000  0.0000000
                       0.0000000  0.0000000  0.0000000     0.0000000  0.0000000  0.0000000
                       0.0000000  0.0000000  0.0000000     0.0000000  0.0000000  0.0000000
                       0.0000000  0.0000000  0.0000000     0.0000000  0.0000000  0.0000000
                       0.0000000  0.0000000  0.0000000     0.0000000  0.0000000  0.0000000
                       0.0000000  0.0000000  0.0000000     0.0000000  0.0000000  0.0000000
                       0.0000000  0.0000000  0.0000000     0.0000000  0.0000000  0.0000000
                       0.0000000  0.0000000  0.0000000     0.0000000  0.0000000  0.0000000
                       0.0000000  0.0000000  0.0000000     0.0000000  0.0000000  0.0000000
                       0.0000000  0.0000000  0.0000000     0.0000000  0.0000000  0.0000000
                       0.0000000  0.0000000  0.0000000     0.0000000  0.0000000  0.0000000
                       0.0000000  0.0000000  0.0000000     0.0000000  0.0000000  0.0000000
                       0.0000000  0.0000000  0.0000000     0.0000000  0.0000000  0.0000000
                       0.0000000  0.0000000  0.0000000     0.0000000  0.0000000  0.0000000
                       0.0000000  0.0000000  0.0000000     0.0000000  0.0000000  0.0000000
                       0.0000000  0.0000000  0.0000000     0.0000000  0.0000000  0.0000000
                       0.0000000  0.0000000  0.0000000     0.0000000  0.0000000  0.0000000
                       0.0000000  0.0000000  0.0000000     0.0000000  0.0000000  0.0000000
                       0.0000000  0.0000000  0.0000000     0.0000000  0.0000000  0.0000000
            tnons31    0.0000000  0.0000000  0.0000000     0.0000000  0.0000000  0.0000000
                       0.0000000  0.0000000  0.0000000     0.0000000  0.0000000  0.0000000
                       0.0000000  0.0000000  0.0000000     0.0000000  0.0000000  0.0000000
                       0.0000000  0.0000000  0.0000000     0.0000000  0.0000000  0.0000000
                       0.0000000  0.0000000  0.0000000     0.0000000  0.0000000  0.0000000
                       0.0000000  0.0000000  0.0000000     0.0000000  0.0000000  0.0000000
                       0.0000000  0.0000000  0.0000000     0.0000000  0.0000000  0.0000000
                       0.0000000  0.0000000  0.0000000     0.0000000  0.0000000  0.0000000
            tnons32    0.0000000  0.0000000  0.0000000     0.0000000  0.0000000  0.0000000
                       0.0000000  0.0000000  0.0000000     0.0000000  0.0000000  0.0000000
                       0.0000000  0.0000000  0.0000000     0.0000000  0.0000000  0.0000000
                       0.0000000  0.0000000  0.0000000     0.0000000  0.0000000  0.0000000
                       0.0000000  0.0000000  0.0000000     0.0000000  0.0000000  0.0000000
                       0.0000000  0.0000000  0.0000000     0.0000000  0.0000000  0.0000000
                       0.0000000  0.0000000  0.0000000     0.0000000  0.0000000  0.0000000
                       0.0000000  0.0000000  0.0000000     0.0000000  0.0000000  0.0000000
                       0.0000000  0.0000000  0.0000000     0.0000000  0.0000000  0.0000000
                       0.0000000  0.0000000  0.0000000     0.0000000  0.0000000  0.0000000
                       0.0000000  0.0000000  0.0000000     0.0000000  0.0000000  0.0000000
                       0.0000000  0.0000000  0.0000000     0.0000000  0.0000000  0.0000000
                       0.0000000  0.0000000  0.0000000     0.0000000  0.0000000  0.0000000
                       0.0000000  0.0000000  0.0000000     0.0000000  0.0000000  0.0000000
                       0.0000000  0.0000000  0.0000000     0.0000000  0.0000000  0.0000000
                       0.0000000  0.0000000  0.0000000     0.0000000  0.0000000  0.0000000
                       0.0000000  0.0000000  0.0000000     0.0000000  0.0000000  0.0000000
                       0.0000000  0.0000000  0.0000000     0.0000000  0.0000000  0.0000000
                       0.0000000  0.0000000  0.0000000     0.0000000  0.0000000  0.0000000
                       0.0000000  0.0000000  0.0000000     0.0000000  0.0000000  0.0000000
                       0.0000000  0.0000000  0.0000000     0.0000000  0.0000000  0.0000000
                       0.0000000  0.0000000  0.0000000     0.0000000  0.0000000  0.0000000
                       0.0000000  0.0000000  0.0000000     0.0000000  0.0000000  0.0000000
                       0.0000000  0.0000000  0.0000000     0.0000000  0.0000000  0.0000000
            tnons41    0.0000000  0.0000000  0.0000000     0.0000000  0.0000000  0.0000000
                       0.0000000  0.0000000  0.0000000     0.0000000  0.0000000  0.0000000
                       0.0000000  0.0000000  0.0000000     0.0000000  0.0000000  0.0000000
                       0.0000000  0.0000000  0.0000000     0.0000000  0.0000000  0.0000000
                       0.0000000  0.0000000  0.0000000     0.0000000  0.0000000  0.0000000
                       0.0000000  0.0000000  0.0000000     0.0000000  0.0000000  0.0000000
                       0.0000000  0.0000000  0.0000000     0.0000000  0.0000000  0.0000000
                       0.0000000  0.0000000  0.0000000     0.0000000  0.0000000  0.0000000
            tnons42    0.0000000  0.0000000  0.0000000     0.0000000  0.0000000  0.0000000
                       0.0000000  0.0000000  0.0000000     0.0000000  0.0000000  0.0000000
                       0.0000000  0.0000000  0.0000000     0.0000000  0.0000000  0.0000000
                       0.0000000  0.0000000  0.0000000     0.0000000  0.0000000  0.0000000
                       0.0000000  0.0000000  0.0000000     0.0000000  0.0000000  0.0000000
                       0.0000000  0.0000000  0.0000000     0.0000000  0.0000000  0.0000000
                       0.0000000  0.0000000  0.0000000     0.0000000  0.0000000  0.0000000
                       0.0000000  0.0000000  0.0000000     0.0000000  0.0000000  0.0000000
                       0.0000000  0.0000000  0.0000000     0.0000000  0.0000000  0.0000000
                       0.0000000  0.0000000  0.0000000     0.0000000  0.0000000  0.0000000
                       0.0000000  0.0000000  0.0000000     0.0000000  0.0000000  0.0000000
                       0.0000000  0.0000000  0.0000000     0.0000000  0.0000000  0.0000000
                       0.0000000  0.0000000  0.0000000     0.0000000  0.0000000  0.0000000
                       0.0000000  0.0000000  0.0000000     0.0000000  0.0000000  0.0000000
                       0.0000000  0.0000000  0.0000000     0.0000000  0.0000000  0.0000000
                       0.0000000  0.0000000  0.0000000     0.0000000  0.0000000  0.0000000
                       0.0000000  0.0000000  0.0000000     0.0000000  0.0000000  0.0000000
                       0.0000000  0.0000000  0.0000000     0.0000000  0.0000000  0.0000000
                       0.0000000  0.0000000  0.0000000     0.0000000  0.0000000  0.0000000
                       0.0000000  0.0000000  0.0000000     0.0000000  0.0000000  0.0000000
                       0.0000000  0.0000000  0.0000000     0.0000000  0.0000000  0.0000000
                       0.0000000  0.0000000  0.0000000     0.0000000  0.0000000  0.0000000
                       0.0000000  0.0000000  0.0000000     0.0000000  0.0000000  0.0000000
                       0.0000000  0.0000000  0.0000000     0.0000000  0.0000000  0.0000000
            tnons51    0.0000000  0.0000000  0.0000000     0.0000000  0.0000000  0.0000000
                       0.0000000  0.0000000  0.0000000     0.0000000  0.0000000  0.0000000
                       0.0000000  0.0000000  0.0000000     0.0000000  0.0000000  0.0000000
                       0.0000000  0.0000000  0.0000000     0.0000000  0.0000000  0.0000000
                       0.0000000  0.0000000  0.0000000     0.0000000  0.0000000  0.0000000
                       0.0000000  0.0000000  0.0000000     0.0000000  0.0000000  0.0000000
                       0.0000000  0.0000000  0.0000000     0.0000000  0.0000000  0.0000000
                       0.0000000  0.0000000  0.0000000     0.0000000  0.0000000  0.0000000
            tnons52    0.0000000  0.0000000  0.0000000     0.0000000  0.0000000  0.0000000
                       0.0000000  0.0000000  0.0000000     0.0000000  0.0000000  0.0000000
                       0.0000000  0.0000000  0.0000000     0.0000000  0.0000000  0.0000000
                       0.0000000  0.0000000  0.0000000     0.0000000  0.0000000  0.0000000
                       0.0000000  0.0000000  0.0000000     0.0000000  0.0000000  0.0000000
                       0.0000000  0.0000000  0.0000000     0.0000000  0.0000000  0.0000000
                       0.0000000  0.0000000  0.0000000     0.0000000  0.0000000  0.0000000
                       0.0000000  0.0000000  0.0000000     0.0000000  0.0000000  0.0000000
                       0.0000000  0.0000000  0.0000000     0.0000000  0.0000000  0.0000000
                       0.0000000  0.0000000  0.0000000     0.0000000  0.0000000  0.0000000
                       0.0000000  0.0000000  0.0000000     0.0000000  0.0000000  0.0000000
                       0.0000000  0.0000000  0.0000000     0.0000000  0.0000000  0.0000000
                       0.0000000  0.0000000  0.0000000     0.0000000  0.0000000  0.0000000
                       0.0000000  0.0000000  0.0000000     0.0000000  0.0000000  0.0000000
                       0.0000000  0.0000000  0.0000000     0.0000000  0.0000000  0.0000000
                       0.0000000  0.0000000  0.0000000     0.0000000  0.0000000  0.0000000
                       0.0000000  0.0000000  0.0000000     0.0000000  0.0000000  0.0000000
                       0.0000000  0.0000000  0.0000000     0.0000000  0.0000000  0.0000000
                       0.0000000  0.0000000  0.0000000     0.0000000  0.0000000  0.0000000
                       0.0000000  0.0000000  0.0000000     0.0000000  0.0000000  0.0000000
                       0.0000000  0.0000000  0.0000000     0.0000000  0.0000000  0.0000000
                       0.0000000  0.0000000  0.0000000     0.0000000  0.0000000  0.0000000
                       0.0000000  0.0000000  0.0000000     0.0000000  0.0000000  0.0000000
                       0.0000000  0.0000000  0.0000000     0.0000000  0.0000000  0.0000000
            tnons61    0.0000000  0.0000000  0.0000000     0.0000000  0.0000000  0.0000000
                       0.0000000  0.0000000  0.0000000     0.0000000  0.0000000  0.0000000
                       0.0000000  0.0000000  0.0000000     0.0000000  0.0000000  0.0000000
                       0.0000000  0.0000000  0.0000000     0.0000000  0.0000000  0.0000000
[...]
                       0.0000000  0.0000000  0.0000000     0.0000000  0.0000000  0.0000000
                       0.0000000  0.0000000  0.0000000     0.0000000  0.0000000  0.0000000
                       0.0000000  0.0000000  0.0000000     0.0000000  0.0000000  0.0000000
                       0.0000000  0.0000000  0.0000000     0.0000000  0.0000000  0.0000000
                       0.0000000  0.0000000  0.0000000     0.0000000  0.0000000  0.0000000
                       0.0000000  0.0000000  0.0000000     0.0000000  0.0000000  0.0000000
                       0.0000000  0.0000000  0.0000000     0.0000000  0.0000000  0.0000000
                       0.0000000  0.0000000  0.0000000     0.0000000  0.0000000  0.0000000
                       0.0000000  0.0000000  0.0000000     0.0000000  0.0000000  0.0000000
                       0.0000000  0.0000000  0.0000000     0.0000000  0.0000000  0.0000000
                       0.0000000  0.0000000  0.0000000     0.0000000  0.0000000  0.0000000
                       0.0000000  0.0000000  0.0000000     0.0000000  0.0000000  0.0000000
                       0.0000000  0.0000000  0.0000000     0.0000000  0.0000000  0.0000000
                       0.0000000  0.0000000  0.0000000     0.0000000  0.0000000  0.0000000
                       0.0000000  0.0000000  0.0000000     0.0000000  0.0000000  0.0000000
                       0.0000000  0.0000000  0.0000000     0.0000000  0.0000000  0.0000000
                       0.0000000  0.0000000  0.0000000     0.0000000  0.0000000  0.0000000
                       0.0000000  0.0000000  0.0000000     0.0000000  0.0000000  0.0000000
                       0.0000000  0.0000000  0.0000000     0.0000000  0.0000000  0.0000000
                       0.0000000  0.0000000  0.0000000     0.0000000  0.0000000  0.0000000
            tnons31    0.0000000  0.0000000  0.0000000     0.0000000  0.0000000  0.0000000
                       0.0000000  0.0000000  0.0000000     0.0000000  0.0000000  0.0000000
                       0.0000000  0.0000000  0.0000000     0.0000000  0.0000000  0.0000000
                       0.0000000  0.0000000  0.0000000     0.0000000  0.0000000  0.0000000
                       0.0000000  0.0000000  0.0000000     0.0000000  0.0000000  0.0000000
                       0.0000000  0.0000000  0.0000000     0.0000000  0.0000000  0.0000000
                       0.0000000  0.0000000  0.0000000     0.0000000  0.0000000  0.0000000
                       0.0000000  0.0000000  0.0000000     0.0000000  0.0000000  0.0000000
            tnons32    0.0000000  0.0000000  0.0000000     0.0000000  0.0000000  0.0000000
                       0.0000000  0.0000000  0.0000000     0.0000000  0.0000000  0.0000000
                       0.0000000  0.0000000  0.0000000     0.0000000  0.0000000  0.0000000
                       0.0000000  0.0000000  0.0000000     0.0000000  0.0000000  0.0000000
                       0.0000000  0.0000000  0.0000000     0.0000000  0.0000000  0.0000000
                       0.0000000  0.0000000  0.0000000     0.0000000  0.0000000  0.0000000
                       0.0000000  0.0000000  0.0000000     0.0000000  0.0000000  0.0000000
                       0.0000000  0.0000000  0.0000000     0.0000000  0.0000000  0.0000000
                       0.0000000  0.0000000  0.0000000     0.0000000  0.0000000  0.0000000
                       0.0000000  0.0000000  0.0000000     0.0000000  0.0000000  0.0000000
                       0.0000000  0.0000000  0.0000000     0.0000000  0.0000000  0.0000000
                       0.0000000  0.0000000  0.0000000     0.0000000  0.0000000  0.0000000
                       0.0000000  0.0000000  0.0000000     0.0000000  0.0000000  0.0000000
                       0.0000000  0.0000000  0.0000000     0.0000000  0.0000000  0.0000000
                       0.0000000  0.0000000  0.0000000     0.0000000  0.0000000  0.0000000
                       0.0000000  0.0000000  0.0000000     0.0000000  0.0000000  0.0000000
                       0.0000000  0.0000000  0.0000000     0.0000000  0.0000000  0.0000000
                       0.0000000  0.0000000  0.0000000     0.0000000  0.0000000  0.0000000
                       0.0000000  0.0000000  0.0000000     0.0000000  0.0000000  0.0000000
                       0.0000000  0.0000000  0.0000000     0.0000000  0.0000000  0.0000000
                       0.0000000  0.0000000  0.0000000     0.0000000  0.0000000  0.0000000
                       0.0000000  0.0000000  0.0000000     0.0000000  0.0000000  0.0000000
                       0.0000000  0.0000000  0.0000000     0.0000000  0.0000000  0.0000000
                       0.0000000  0.0000000  0.0000000     0.0000000  0.0000000  0.0000000
            tnons41    0.0000000  0.0000000  0.0000000     0.0000000  0.0000000  0.0000000
                       0.0000000  0.0000000  0.0000000     0.0000000  0.0000000  0.0000000
                       0.0000000  0.0000000  0.0000000     0.0000000  0.0000000  0.0000000
                       0.0000000  0.0000000  0.0000000     0.0000000  0.0000000  0.0000000
                       0.0000000  0.0000000  0.0000000     0.0000000  0.0000000  0.0000000
                       0.0000000  0.0000000  0.0000000     0.0000000  0.0000000  0.0000000
                       0.0000000  0.0000000  0.0000000     0.0000000  0.0000000  0.0000000
                       0.0000000  0.0000000  0.0000000     0.0000000  0.0000000  0.0000000
            tnons42    0.0000000  0.0000000  0.0000000     0.0000000  0.0000000  0.0000000
                       0.0000000  0.0000000  0.0000000     0.0000000  0.0000000  0.0000000
                       0.0000000  0.0000000  0.0000000     0.0000000  0.0000000  0.0000000
                       0.0000000  0.0000000  0.0000000     0.0000000  0.0000000  0.0000000
                       0.0000000  0.0000000  0.0000000     0.0000000  0.0000000  0.0000000
                       0.0000000  0.0000000  0.0000000     0.0000000  0.0000000  0.0000000
                       0.0000000  0.0000000  0.0000000     0.0000000  0.0000000  0.0000000
                       0.0000000  0.0000000  0.0000000     0.0000000  0.0000000  0.0000000
                       0.0000000  0.0000000  0.0000000     0.0000000  0.0000000  0.0000000
                       0.0000000  0.0000000  0.0000000     0.0000000  0.0000000  0.0000000
                       0.0000000  0.0000000  0.0000000     0.0000000  0.0000000  0.0000000
                       0.0000000  0.0000000  0.0000000     0.0000000  0.0000000  0.0000000
                       0.0000000  0.0000000  0.0000000     0.0000000  0.0000000  0.0000000
                       0.0000000  0.0000000  0.0000000     0.0000000  0.0000000  0.0000000
                       0.0000000  0.0000000  0.0000000     0.0000000  0.0000000  0.0000000
                       0.0000000  0.0000000  0.0000000     0.0000000  0.0000000  0.0000000
                       0.0000000  0.0000000  0.0000000     0.0000000  0.0000000  0.0000000
                       0.0000000  0.0000000  0.0000000     0.0000000  0.0000000  0.0000000
                       0.0000000  0.0000000  0.0000000     0.0000000  0.0000000  0.0000000
                       0.0000000  0.0000000  0.0000000     0.0000000  0.0000000  0.0000000
                       0.0000000  0.0000000  0.0000000     0.0000000  0.0000000  0.0000000
                       0.0000000  0.0000000  0.0000000     0.0000000  0.0000000  0.0000000
                       0.0000000  0.0000000  0.0000000     0.0000000  0.0000000  0.0000000
                       0.0000000  0.0000000  0.0000000     0.0000000  0.0000000  0.0000000
            tnons51    0.0000000  0.0000000  0.0000000     0.0000000  0.0000000  0.0000000
                       0.0000000  0.0000000  0.0000000     0.0000000  0.0000000  0.0000000
                       0.0000000  0.0000000  0.0000000     0.0000000  0.0000000  0.0000000
                       0.0000000  0.0000000  0.0000000     0.0000000  0.0000000  0.0000000
                       0.0000000  0.0000000  0.0000000     0.0000000  0.0000000  0.0000000
                       0.0000000  0.0000000  0.0000000     0.0000000  0.0000000  0.0000000
                       0.0000000  0.0000000  0.0000000     0.0000000  0.0000000  0.0000000
                       0.0000000  0.0000000  0.0000000     0.0000000  0.0000000  0.0000000
            tnons52    0.0000000  0.0000000  0.0000000     0.0000000  0.0000000  0.0000000
                       0.0000000  0.0000000  0.0000000     0.0000000  0.0000000  0.0000000
                       0.0000000  0.0000000  0.0000000     0.0000000  0.0000000  0.0000000
                       0.0000000  0.0000000  0.0000000     0.0000000  0.0000000  0.0000000
                       0.0000000  0.0000000  0.0000000     0.0000000  0.0000000  0.0000000
                       0.0000000  0.0000000  0.0000000     0.0000000  0.0000000  0.0000000
                       0.0000000  0.0000000  0.0000000     0.0000000  0.0000000  0.0000000
                       0.0000000  0.0000000  0.0000000     0.0000000  0.0000000  0.0000000
                       0.0000000  0.0000000  0.0000000     0.0000000  0.0000000  0.0000000
                       0.0000000  0.0000000  0.0000000     0.0000000  0.0000000  0.0000000
                       0.0000000  0.0000000  0.0000000     0.0000000  0.0000000  0.0000000
                       0.0000000  0.0000000  0.0000000     0.0000000  0.0000000  0.0000000
                       0.0000000  0.0000000  0.0000000     0.0000000  0.0000000  0.0000000
                       0.0000000  0.0000000  0.0000000     0.0000000  0.0000000  0.0000000
                       0.0000000  0.0000000  0.0000000     0.0000000  0.0000000  0.0000000
                       0.0000000  0.0000000  0.0000000     0.0000000  0.0000000  0.0000000
                       0.0000000  0.0000000  0.0000000     0.0000000  0.0000000  0.0000000
                       0.0000000  0.0000000  0.0000000     0.0000000  0.0000000  0.0000000
                       0.0000000  0.0000000  0.0000000     0.0000000  0.0000000  0.0000000
                       0.0000000  0.0000000  0.0000000     0.0000000  0.0000000  0.0000000
                       0.0000000  0.0000000  0.0000000     0.0000000  0.0000000  0.0000000
                       0.0000000  0.0000000  0.0000000     0.0000000  0.0000000  0.0000000
                       0.0000000  0.0000000  0.0000000     0.0000000  0.0000000  0.0000000
                       0.0000000  0.0000000  0.0000000     0.0000000  0.0000000  0.0000000
            tnons61    0.0000000  0.0000000  0.0000000     0.0000000  0.0000000  0.0000000
                       0.0000000  0.0000000  0.0000000     0.0000000  0.0000000  0.0000000
                       0.0000000  0.0000000  0.0000000     0.0000000  0.0000000  0.0000000
                       0.0000000  0.0000000  0.0000000     0.0000000  0.0000000  0.0000000
                       0.0000000  0.0000000  0.0000000     0.0000000  0.0000000  0.0000000
                       0.0000000  0.0000000  0.0000000     0.0000000  0.0000000  0.0000000
                       0.0000000  0.0000000  0.0000000     0.0000000  0.0000000  0.0000000
                       0.0000000  0.0000000  0.0000000     0.0000000  0.0000000  0.0000000
            tnons62    0.0000000  0.0000000  0.0000000     0.0000000  0.0000000  0.0000000
                       0.0000000  0.0000000  0.0000000     0.0000000  0.0000000  0.0000000
                       0.0000000  0.0000000  0.0000000     0.0000000  0.0000000  0.0000000
                       0.0000000  0.0000000  0.0000000     0.0000000  0.0000000  0.0000000
                       0.0000000  0.0000000  0.0000000     0.0000000  0.0000000  0.0000000
                       0.0000000  0.0000000  0.0000000     0.0000000  0.0000000  0.0000000
                       0.0000000  0.0000000  0.0000000     0.0000000  0.0000000  0.0000000
                       0.0000000  0.0000000  0.0000000     0.0000000  0.0000000  0.0000000
                       0.0000000  0.0000000  0.0000000     0.0000000  0.0000000  0.0000000
                       0.0000000  0.0000000  0.0000000     0.0000000  0.0000000  0.0000000
                       0.0000000  0.0000000  0.0000000     0.0000000  0.0000000  0.0000000
                       0.0000000  0.0000000  0.0000000     0.0000000  0.0000000  0.0000000
                       0.0000000  0.0000000  0.0000000     0.0000000  0.0000000  0.0000000
                       0.0000000  0.0000000  0.0000000     0.0000000  0.0000000  0.0000000
                       0.0000000  0.0000000  0.0000000     0.0000000  0.0000000  0.0000000
                       0.0000000  0.0000000  0.0000000     0.0000000  0.0000000  0.0000000
                       0.0000000  0.0000000  0.0000000     0.0000000  0.0000000  0.0000000
                       0.0000000  0.0000000  0.0000000     0.0000000  0.0000000  0.0000000
                       0.0000000  0.0000000  0.0000000     0.0000000  0.0000000  0.0000000
                       0.0000000  0.0000000  0.0000000     0.0000000  0.0000000  0.0000000
                       0.0000000  0.0000000  0.0000000     0.0000000  0.0000000  0.0000000
                       0.0000000  0.0000000  0.0000000     0.0000000  0.0000000  0.0000000
                       0.0000000  0.0000000  0.0000000     0.0000000  0.0000000  0.0000000
                       0.0000000  0.0000000  0.0000000     0.0000000  0.0000000  0.0000000
           toldfe11    0.00000000E+00 Hartree
           toldfe12    1.00000000E-06 Hartree
           toldfe21    0.00000000E+00 Hartree
           toldfe22    1.00000000E-06 Hartree
           toldfe31    0.00000000E+00 Hartree
           toldfe32    1.00000000E-06 Hartree
           toldfe41    0.00000000E+00 Hartree
           toldfe42    1.00000000E-06 Hartree
           toldfe51    0.00000000E+00 Hartree
           toldfe52    1.00000000E-06 Hartree
           toldfe61    0.00000000E+00 Hartree
           toldfe62    1.00000000E-06 Hartree
           toldff11    5.00000000E-05
           toldff12    0.00000000E+00
           toldff21    5.00000000E-05
           toldff22    0.00000000E+00
           toldff31    5.00000000E-05
           toldff32    0.00000000E+00
           toldff41    5.00000000E-05
           toldff42    0.00000000E+00
           toldff51    5.00000000E-05
           toldff52    0.00000000E+00
           toldff61    5.00000000E-05
           toldff62    0.00000000E+00
           tolmxf11    5.00000000E-04
           tolmxf12    5.00000000E-05
           tolmxf21    5.00000000E-04
           tolmxf22    5.00000000E-05
           tolmxf31    5.00000000E-04
           tolmxf32    5.00000000E-05
           tolmxf41    5.00000000E-04
           tolmxf42    5.00000000E-05
           tolmxf51    5.00000000E-04
           tolmxf52    5.00000000E-05
           tolmxf61    5.00000000E-04
           tolmxf62    5.00000000E-05
            typat11    1  1
            typat12    1
            typat21    1  1
            typat22    1
            typat31    1  1
            typat32    1
            typat41    1  1
            typat42    1
            typat51    1  1
            typat52    1
            typat61    1  1
            typat62    1
           xangst11   -3.9371806795E-01  0.0000000000E+00  0.0000000000E+00
                       3.9371806795E-01  0.0000000000E+00  0.0000000000E+00
           xangst12    0.0000000000E+00  0.0000000000E+00  0.0000000000E+00
           xangst21   -3.8447929339E-01  0.0000000000E+00  0.0000000000E+00
                       3.8447929339E-01  0.0000000000E+00  0.0000000000E+00
           xangst22    0.0000000000E+00  0.0000000000E+00  0.0000000000E+00
           xangst31   -3.8176206343E-01  0.0000000000E+00  0.0000000000E+00
                       3.8176206343E-01  0.0000000000E+00  0.0000000000E+00
           xangst32    0.0000000000E+00  0.0000000000E+00  0.0000000000E+00
           xangst41   -3.8185014426E-01  0.0000000000E+00  0.0000000000E+00
                       3.8185014426E-01  0.0000000000E+00  0.0000000000E+00
           xangst42    0.0000000000E+00  0.0000000000E+00  0.0000000000E+00
           xangst51   -3.8161981761E-01  0.0000000000E+00  0.0000000000E+00
                       3.8161981761E-01  0.0000000000E+00  0.0000000000E+00
           xangst52    0.0000000000E+00  0.0000000000E+00  0.0000000000E+00
           xangst61   -3.8158322228E-01  0.0000000000E+00  0.0000000000E+00
                       3.8158322228E-01  0.0000000000E+00  0.0000000000E+00
           xangst62    0.0000000000E+00  0.0000000000E+00  0.0000000000E+00
            xcart11   -7.4401932200E-01  0.0000000000E+00  0.0000000000E+00
                       7.4401932200E-01  0.0000000000E+00  0.0000000000E+00
            xcart12    0.0000000000E+00  0.0000000000E+00  0.0000000000E+00
            xcart21   -7.2656056828E-01  0.0000000000E+00  0.0000000000E+00
                       7.2656056828E-01  0.0000000000E+00  0.0000000000E+00
            xcart22    0.0000000000E+00  0.0000000000E+00  0.0000000000E+00
            xcart31   -7.2142574781E-01  0.0000000000E+00  0.0000000000E+00
                       7.2142574781E-01  0.0000000000E+00  0.0000000000E+00
            xcart32    0.0000000000E+00  0.0000000000E+00  0.0000000000E+00
            xcart41   -7.2159219646E-01  0.0000000000E+00  0.0000000000E+00
                       7.2159219646E-01  0.0000000000E+00  0.0000000000E+00
            xcart42    0.0000000000E+00  0.0000000000E+00  0.0000000000E+00
            xcart51   -7.2115694216E-01  0.0000000000E+00  0.0000000000E+00
                       7.2115694216E-01  0.0000000000E+00  0.0000000000E+00
            xcart52    0.0000000000E+00  0.0000000000E+00  0.0000000000E+00
            xcart61   -7.2108778701E-01  0.0000000000E+00  0.0000000000E+00
                       7.2108778701E-01  0.0000000000E+00  0.0000000000E+00
            xcart62    0.0000000000E+00  0.0000000000E+00  0.0000000000E+00
             xred11   -9.3002415250E-02  0.0000000000E+00  0.0000000000E+00
                       9.3002415250E-02  0.0000000000E+00  0.0000000000E+00
             xred12    0.0000000000E+00  0.0000000000E+00  0.0000000000E+00
             xred21   -7.2656056828E-02  0.0000000000E+00  0.0000000000E+00
                       7.2656056828E-02  0.0000000000E+00  0.0000000000E+00
             xred22    0.0000000000E+00  0.0000000000E+00  0.0000000000E+00
             xred31   -6.0118812317E-02  0.0000000000E+00  0.0000000000E+00
                       6.0118812317E-02  0.0000000000E+00  0.0000000000E+00
             xred32    0.0000000000E+00  0.0000000000E+00  0.0000000000E+00
             xred41   -5.1542299747E-02  0.0000000000E+00  0.0000000000E+00
                       5.1542299747E-02  0.0000000000E+00  0.0000000000E+00
             xred42    0.0000000000E+00  0.0000000000E+00  0.0000000000E+00
             xred51   -4.5072308885E-02  0.0000000000E+00  0.0000000000E+00
                       4.5072308885E-02  0.0000000000E+00  0.0000000000E+00
             xred52    0.0000000000E+00  0.0000000000E+00  0.0000000000E+00
             xred61   -4.0060432612E-02  0.0000000000E+00  0.0000000000E+00
                       4.0060432612E-02  0.0000000000E+00  0.0000000000E+00
             xred62    0.0000000000E+00  0.0000000000E+00  0.0000000000E+00
            znucl        1.00000
 
================================================================================
  
 Proc.   0 individual time (sec): cpu=          9.7  wall=         20.6
 
 Calculation completed.
.Delivered 141 WARNINGs and  25 COMMENTs to log file.

--- !FinalSummary
program: abinit
version: 9.10.3
start_datetime: Thu Apr 24 16:12:18 2025
end_datetime: Thu Apr 24 16:12:39 2025
overall_cpu_time:           9.7
overall_wall_time:          20.6
exit_requested_by_user: no 
timelimit: 0
pseudos: 
    H   : 20698c48a21fe3532638b4d685fd1c8b
usepaw: 0
mpi_procs: 1
omp_threads: 1
num_warnings: 141
num_comments: 25
...
