  ABINIT 9.10.3
  
-instrng: 84 lines of input have been read from file tbase3_3.abi
 

.Version 9.10.3 of ABINIT 
.(MPI version, prepared for a x86_64_linux_intel2021.6 computer) 

.Copyright (C) 1998-2022 ABINIT group . 
 ABINIT comes with ABSOLUTELY NO WARRANTY.
 It is free software, and you are welcome to redistribute it
 under certain conditions (GNU General Public License,
 see ~abinit/COPYING or http://www.gnu.org/copyleft/gpl.txt).

 ABINIT is a project of the Universite Catholique de Louvain,
 Corning Inc. and other collaborators, see ~abinit/doc/developers/contributors.txt .
 Please read https://docs.abinit.org/theory/acknowledgments for suggested
 acknowledgments of the ABINIT effort.
 For more information, see https://www.abinit.org .

.Starting date : Thu  1 May 2025.
- ( at 08h27 )
  
 
 ++++++++++++++++++++++++++++++++++++++++++++++++++++++++++++++++++++++++++++++
 
 === Build Information === 
  Version       : 9.10.3
  Build target  : x86_64_linux_intel2021.6
  Build date    : 20240126
 
 === Compiler Suite === 
  C compiler       : intel2021.6
  C++ compiler     : gnu2021.6
  Fortran compiler : intel2021.6
  CFLAGS           : -g -O2
  CXXFLAGS         : -g -O2 -mtune=native -march=native
  FCFLAGS          : -g -extend-source -nofpscomp     -I/shared/ucl/apps/NetCDF/4.9.2-in ...
  FC_LDFLAGS       :   -static-intel -static-libgcc
 
 === Optimizations === 
  Debug level        : basic
  Optimization level : standard
  Architecture       : intel_xeon
 
 === Multicore === 
  Parallel build : /shared/ucl/apps/intel/2020/impi/2019.6.166/intel64
  Parallel I/O   : 
  openMP support : 
  GPU support    : 
 
 === Connectors / Fallbacks === 
  LINALG flavor  : mkl
  FFT flavor     : dfti
  HDF5           : yes
  NetCDF         : yes
  NetCDF Fortran : yes
  LibXC          : yes
  Wannier90      : no
 
 === Experimental features === 
  Exports             : 
  GW double-precision : 
 
 ++++++++++++++++++++++++++++++++++++++++++++++++++++++++++++++++++++++++++++++
 

 ++++++++++++++++++++++++++++++++++++++++++++++++++++++++++++++++++++++++++++++
 Default optimizations:
   -O3


 Optimizations for 43_ptgroups:
   -O0


 ++++++++++++++++++++++++++++++++++++++++++++++++++++++++++++++++++++++++++++++


 ++++++++++++++++++++++++++++++++++++++++++++++++++++++++++++++++++++++++++++++
 CPP options activated during the build:

                  CC_INTEL                   CXX_GNU                  FC_INTEL
 
                 HAVE_DFTI HAVE_FC_ALLOCATABLE_DT...             HAVE_FC_ASYNC
 
  HAVE_FC_COMMAND_ARGUMENT      HAVE_FC_COMMAND_LINE        HAVE_FC_CONTIGUOUS
 
           HAVE_FC_CPUTIME              HAVE_FC_EXIT             HAVE_FC_FLUSH
 
             HAVE_FC_GAMMA   HAVE_FC_IEEE_ARITHMETIC   HAVE_FC_IEEE_EXCEPTIONS
 
             HAVE_FC_IOMSG     HAVE_FC_ISO_C_BINDING  HAVE_FC_ISO_FORTRAN_2008
 
        HAVE_FC_LONG_LINES        HAVE_FC_MOVE_ALLOC  HAVE_FC_ON_THE_FLY_SHAPE
 
           HAVE_FC_PRIVATE         HAVE_FC_PROTECTED           HAVE_FC_SHIFTLR
 
         HAVE_FC_STREAM_IO                 HAVE_HDF5             HAVE_HDF5_MPI
 
        HAVE_LIBPAW_ABINIT      HAVE_LIBTETRA_ABINIT                HAVE_LIBXC
 
         HAVE_LINALG_AXPBY        HAVE_LINALG_GEMM3M         HAVE_LINALG_GEMMT
 
  HAVE_LINALG_MKL_IMATCOPY   HAVE_LINALG_MKL_OMATADD  HAVE_LINALG_MKL_OMATCOPY
 
   HAVE_LINALG_MKL_THREADS     HAVE_LINALG_SCALAPACK                  HAVE_MPI
 
                 HAVE_MPI2       HAVE_MPI_IALLGATHER       HAVE_MPI_IALLREDUCE
 
        HAVE_MPI_IALLTOALL       HAVE_MPI_IALLTOALLV           HAVE_MPI_IBCAST
 
         HAVE_MPI_IGATHERV        HAVE_MPI_INTEGER16               HAVE_MPI_IO
 
 HAVE_MPI_TYPE_CREATE_S...               HAVE_NETCDF       HAVE_NETCDF_FORTRAN
 
   HAVE_NETCDF_FORTRAN_MPI           HAVE_NETCDF_MPI             HAVE_OS_LINUX
 
         HAVE_TIMER_ABINIT                                                      
 ++++++++++++++++++++++++++++++++++++++++++++++++++++++++++++++++++++++++++++++

- input  file    -> tbase3_3.abi
- output file    -> tbase3_3.abo
- root for input  files -> tbase3_3i
- root for output files -> tbase3_3o
 
 Netcdf library supports MPI-IO
-instrng: 84 lines of input have been read from file tbase3_3.abi
 
 For atom type 1, psp file is /home/mmm1483/Scratch/abinit_code/basic1/persudo/Si.psp8
  read the values zionpsp=  4.0 , pspcod=   8 , lmax=   2
 
 inpspheads: deduce mpsang = 3, n1xccc = 2501.

======================================================= 
 invars1m : enter jdtset= 1
 
 symlatt: the Bravais lattice is cF (face-centered cubic)
  xred   is defined in input file
 ingeo: takes atomic coordinates from input array xred
 
--- !COMMENT
src_file: m_ingeo.F90
src_line: 890
message: |
    The tolerance on symmetries =   1.000E-05 is bigger than 1.0e-8.
    In order to avoid spurious effects, the atomic coordinates have been
    symmetrized before storing them in the dataset internal variable.
    So, do not be surprised by the fact that your input variables (xcart, xred, ...)
    do not correspond exactly to the ones echoed by ABINIT, the latter being used to do the calculations.
    This is not a problem per se.
    Still, in order to avoid this symmetrization (e.g. for specific debugging/development), decrease tolsym to 1.0e-8 or lower,
    or (much preferred) use input primitive vectors that are accurate to better than 1.0e-8.
    This message will only be printed once, even if there are other datasets where tolsym is bigger than 1.0e-8.
...
 
 
 symlatt: the Bravais lattice is cF (face-centered cubic)
 
 symlatt: the Bravais lattice is cF (face-centered cubic)
 symspgr: spgroup= 227  Fd -3 m   (=Oh^7)
 symspgr: optical characteristics = isotropic

======================================================= 
 invars1m : enter jdtset= 2
 
 symlatt: the Bravais lattice is cF (face-centered cubic)
  xred   is defined in input file
 ingeo: takes atomic coordinates from input array xred
 
 symlatt: the Bravais lattice is cF (face-centered cubic)
 
 symlatt: the Bravais lattice is cF (face-centered cubic)
 symspgr: spgroup= 227  Fd -3 m   (=Oh^7)
 symspgr: optical characteristics = isotropic

======================================================= 
 invars1m : enter jdtset= 3
 
 symlatt: the Bravais lattice is cF (face-centered cubic)
  xred   is defined in input file
 ingeo: takes atomic coordinates from input array xred
 
 symlatt: the Bravais lattice is cF (face-centered cubic)
 
 symlatt: the Bravais lattice is cF (face-centered cubic)
 symspgr: spgroup= 227  Fd -3 m   (=Oh^7)
 symspgr: optical characteristics = isotropic

======================================================= 
 invars1m : enter jdtset= 4
 
 symlatt: the Bravais lattice is cF (face-centered cubic)
  xred   is defined in input file
 ingeo: takes atomic coordinates from input array xred
 
 symlatt: the Bravais lattice is cF (face-centered cubic)
 
 symlatt: the Bravais lattice is cF (face-centered cubic)
 symspgr: spgroup= 227  Fd -3 m   (=Oh^7)
 symspgr: optical characteristics = isotropic
 invars2: take the default value of fband=  1.25000000E-01
 invars2: take the default value of fband=  1.25000000E-01
 invars2: take the default value of fband=  1.25000000E-01
 invars2: take the default value of fband=  1.25000000E-01
 LMac pawujat is:            0
 LMac pawujat is:            0
 LMac pawujat is:            0
 LMac pawujat is:            0
 For input ecut=  1.200000E+01 best grid ngfft=      24      24      24
       max ecut=  1.371408E+01
 
 ==== FFT mesh ====
  FFT mesh divisions ........................    24   24   24
  Augmented FFT divisions ...................    25   25   24
  FFT algorithm .............................   512
  FFT cache size ............................    16
 getmpw: optimal value of mpw= 525
 For input ecut=  1.200000E+01 best grid ngfft=      24      24      24
       max ecut=  1.371408E+01
 
 ==== FFT mesh ====
  FFT mesh divisions ........................    24   24   24
  Augmented FFT divisions ...................    25   25   24
  FFT algorithm .............................   512
  FFT cache size ............................    16
 getmpw: optimal value of mpw= 534
 For input ecut=  1.200000E+01 best grid ngfft=      24      24      24
       max ecut=  1.371408E+01
 
 ==== FFT mesh ====
  FFT mesh divisions ........................    24   24   24
  Augmented FFT divisions ...................    25   25   24
  FFT algorithm .............................   512
  FFT cache size ............................    16
 getmpw: optimal value of mpw= 534
 For input ecut=  1.200000E+01 best grid ngfft=      24      24      24
       max ecut=  1.371408E+01
 
 ==== FFT mesh ====
  FFT mesh divisions ........................    24   24   24
  Augmented FFT divisions ...................    25   25   24
  FFT algorithm .............................   512
  FFT cache size ............................    16
 getmpw: optimal value of mpw= 534
 
 DATASET    1 : space group Fd -3 m (#227); Bravais cF (face-center cubic)
 
 getdim_nloc: deduce lmnmax  =  18, lnmax  =   6,
                      lmnmaxso=  18, lnmaxso=   6.
memory: analysis of memory needs
================================================================================
 Values of the parameters that define the memory need for DATASET  1.
     intxc =       0    ionmov =       0      iscf =       7    lmnmax =       6
     lnmax =       6     mgfft =      24  mpssoang =       3    mqgrid =    3001
     natom =       2  nloc_mem =       1    nspden =       1   nspinor =       1
    nsppol =       1      nsym =      48    n1xccc =    2501    ntypat =       1
    occopt =       1   xclevel =       2
-    mband =           5        mffmem =           1         mkmem =           2
       mpw =         525          nfft =       13824          nkpt =           2
================================================================================
P This job should need less than                       5.264 Mbytes of memory.
  Rough estimation (10% accuracy) of disk space for files :
_ WF disk file :      0.082 Mbytes ; DEN or POT disk file :      0.107 Mbytes.
================================================================================
 
 Biggest array : f_fftgr(disk), with      1.6895 MBytes.
 memana : allocated an array of      1.690 Mbytes, for testing purposes.
 memana: allocated       5.264Mbytes, for testing purposes. 
 The job will continue.
 
 DATASET    2 : space group Fd -3 m (#227); Bravais cF (face-center cubic)
 
 getdim_nloc: deduce lmnmax  =  18, lnmax  =   6,
                      lmnmaxso=  18, lnmaxso=   6.
memory: analysis of memory needs
================================================================================
 Values of the parameters that define the memory need for DATASET  2.
     intxc =       0    ionmov =       0      iscf =       7    lmnmax =       6
     lnmax =       6     mgfft =      24  mpssoang =       3    mqgrid =    3001
     natom =       2  nloc_mem =       1    nspden =       1   nspinor =       1
    nsppol =       1      nsym =      48    n1xccc =    2501    ntypat =       1
    occopt =       1   xclevel =       2
-    mband =           5        mffmem =           1         mkmem =          10
       mpw =         534          nfft =       13824          nkpt =          10
================================================================================
P This job should need less than                       5.641 Mbytes of memory.
  Rough estimation (10% accuracy) of disk space for files :
_ WF disk file :      0.409 Mbytes ; DEN or POT disk file :      0.107 Mbytes.
================================================================================
 
 Biggest array : f_fftgr(disk), with      1.6895 MBytes.
 memana : allocated an array of      1.690 Mbytes, for testing purposes.
 memana: allocated       5.641Mbytes, for testing purposes. 
 The job will continue.
 
 DATASET    3 : space group Fd -3 m (#227); Bravais cF (face-center cubic)
 
 getdim_nloc: deduce lmnmax  =  18, lnmax  =   6,
                      lmnmaxso=  18, lnmaxso=   6.
memory: analysis of memory needs
================================================================================
 Values of the parameters that define the memory need for DATASET  3.
     intxc =       0    ionmov =       0      iscf =       7    lmnmax =       6
     lnmax =       6     mgfft =      24  mpssoang =       3    mqgrid =    3001
     natom =       2  nloc_mem =       1    nspden =       1   nspinor =       1
    nsppol =       1      nsym =      48    n1xccc =    2501    ntypat =       1
    occopt =       1   xclevel =       2
-    mband =           5        mffmem =           1         mkmem =          28
       mpw =         534          nfft =       13824          nkpt =          28
================================================================================
P This job should need less than                       6.487 Mbytes of memory.
  Rough estimation (10% accuracy) of disk space for files :
_ WF disk file :      1.143 Mbytes ; DEN or POT disk file :      0.107 Mbytes.
================================================================================
 
 Biggest array : f_fftgr(disk), with      1.6895 MBytes.
 memana : allocated an array of      1.690 Mbytes, for testing purposes.
 memana: allocated       6.487Mbytes, for testing purposes. 
 The job will continue.
 
 DATASET    4 : space group Fd -3 m (#227); Bravais cF (face-center cubic)
 
 getdim_nloc: deduce lmnmax  =  18, lnmax  =   6,
                      lmnmaxso=  18, lnmaxso=   6.
memory: analysis of memory needs
================================================================================
 Values of the parameters that define the memory need for DATASET  4.
     intxc =       0    ionmov =       0      iscf =       7    lmnmax =       6
     lnmax =       6     mgfft =      24  mpssoang =       3    mqgrid =    3001
     natom =       2  nloc_mem =       1    nspden =       1   nspinor =       1
    nsppol =       1      nsym =      48    n1xccc =    2501    ntypat =       1
    occopt =       1   xclevel =       2
-    mband =           5        mffmem =           1         mkmem =          60
       mpw =         534          nfft =       13824          nkpt =          60
================================================================================
P This job should need less than                       7.990 Mbytes of memory.
  Rough estimation (10% accuracy) of disk space for files :
_ WF disk file :      2.446 Mbytes ; DEN or POT disk file :      0.107 Mbytes.
================================================================================
 
 Biggest array : cg(disk), with      2.4465 MBytes.
 memana : allocated an array of      2.446 Mbytes, for testing purposes.
 memana: allocated       7.990Mbytes, for testing purposes. 
 The job will continue.
--------------------------------------------------------------------------------
------------- Echo of variables that govern the present computation ------------
--------------------------------------------------------------------------------
-
- outvars: echo of selected default values                                      
-   iomode0 =  0 , fftalg0 =512 , wfoptalg0 =  0
-
- outvars: echo of global parameters not present in the input file              
-  max_nthreads =    0
-
 -outvars: echo values of preprocessed input variables --------
 
 These variables are accessible in NetCDF format (tbase3_3o_OUT.nc)

            acell      1.0180000000E+01  1.0180000000E+01  1.0180000000E+01 Bohr
              amu      2.80855000E+01
           diemac      1.20000000E+01
             ecut      1.20000000E+01 Hartree
-          fftalg         512
           getwfk          -1
              ixc          11
           jdtset        1    2    3    4
              kpt1    -2.50000000E-01  5.00000000E-01  0.00000000E+00
                      -2.50000000E-01  0.00000000E+00  0.00000000E+00
              kpt2    -1.25000000E-01 -2.50000000E-01  0.00000000E+00
                      -1.25000000E-01  5.00000000E-01  0.00000000E+00
                      -2.50000000E-01 -3.75000000E-01  0.00000000E+00
                      -1.25000000E-01 -3.75000000E-01  1.25000000E-01
                      -1.25000000E-01  2.50000000E-01  0.00000000E+00
                      -2.50000000E-01  3.75000000E-01  0.00000000E+00
                      -3.75000000E-01  5.00000000E-01  0.00000000E+00
                      -2.50000000E-01  5.00000000E-01  1.25000000E-01
                      -1.25000000E-01  0.00000000E+00  0.00000000E+00
                      -3.75000000E-01  0.00000000E+00  0.00000000E+00
              kpt3    -8.33333333E-02 -1.66666667E-01  0.00000000E+00
                      -8.33333333E-02 -3.33333333E-01  0.00000000E+00
                      -1.66666667E-01 -2.50000000E-01  0.00000000E+00
                      -8.33333333E-02 -2.50000000E-01  8.33333333E-02
                      -8.33333333E-02  5.00000000E-01  0.00000000E+00
                      -1.66666667E-01 -4.16666667E-01  0.00000000E+00
                      -8.33333333E-02 -4.16666667E-01  8.33333333E-02
                      -2.50000000E-01 -3.33333333E-01  0.00000000E+00
                      -1.66666667E-01 -3.33333333E-01  8.33333333E-02
                      -8.33333333E-02 -3.33333333E-01  1.66666667E-01
                      -8.33333333E-02  3.33333333E-01  0.00000000E+00
                      -1.66666667E-01  4.16666667E-01  0.00000000E+00
                      -2.50000000E-01  5.00000000E-01  0.00000000E+00
                      -1.66666667E-01  5.00000000E-01  8.33333333E-02
                      -3.33333333E-01 -4.16666667E-01  0.00000000E+00
                      -2.50000000E-01 -4.16666667E-01  8.33333333E-02
                      -1.66666667E-01 -4.16666667E-01  1.66666667E-01
                      -8.33333333E-02 -4.16666667E-01  2.50000000E-01
                      -8.33333333E-02  1.66666667E-01  0.00000000E+00
                      -1.66666667E-01  2.50000000E-01  0.00000000E+00
                      -2.50000000E-01  3.33333333E-01  0.00000000E+00
                      -3.33333333E-01  4.16666667E-01  0.00000000E+00
                      -4.16666667E-01  5.00000000E-01  0.00000000E+00
                      -3.33333333E-01  5.00000000E-01  8.33333333E-02
                      -2.50000000E-01  5.00000000E-01  1.66666667E-01
                      -8.33333333E-02  0.00000000E+00  0.00000000E+00
                      -2.50000000E-01  0.00000000E+00  0.00000000E+00
                      -4.16666667E-01  0.00000000E+00  0.00000000E+00
              kpt4    -6.25000000E-02 -1.25000000E-01  0.00000000E+00
                      -6.25000000E-02 -2.50000000E-01  0.00000000E+00
                      -1.25000000E-01 -1.87500000E-01  0.00000000E+00
                      -6.25000000E-02 -1.87500000E-01  6.25000000E-02
                      -6.25000000E-02 -3.75000000E-01  0.00000000E+00
                      -1.25000000E-01 -3.12500000E-01  0.00000000E+00
                      -6.25000000E-02 -3.12500000E-01  6.25000000E-02
                      -1.87500000E-01 -2.50000000E-01  0.00000000E+00
                      -1.25000000E-01 -2.50000000E-01  6.25000000E-02
                      -6.25000000E-02 -2.50000000E-01  1.25000000E-01
                      -6.25000000E-02  5.00000000E-01  0.00000000E+00
                      -1.25000000E-01 -4.37500000E-01  0.00000000E+00
                      -6.25000000E-02 -4.37500000E-01  6.25000000E-02
                      -1.87500000E-01 -3.75000000E-01  0.00000000E+00
                      -1.25000000E-01 -3.75000000E-01  6.25000000E-02
                      -6.25000000E-02 -3.75000000E-01  1.25000000E-01
                      -2.50000000E-01 -3.12500000E-01  0.00000000E+00
                      -1.87500000E-01 -3.12500000E-01  6.25000000E-02
                      -1.25000000E-01 -3.12500000E-01  1.25000000E-01
                      -6.25000000E-02 -3.12500000E-01  1.87500000E-01
                      -6.25000000E-02  3.75000000E-01  0.00000000E+00
                      -1.25000000E-01  4.37500000E-01  0.00000000E+00
                      -1.87500000E-01  5.00000000E-01  0.00000000E+00
                      -1.25000000E-01  5.00000000E-01  6.25000000E-02
                      -2.50000000E-01 -4.37500000E-01  0.00000000E+00
                      -1.87500000E-01 -4.37500000E-01  6.25000000E-02
                      -1.25000000E-01 -4.37500000E-01  1.25000000E-01
                      -6.25000000E-02 -4.37500000E-01  1.87500000E-01
                      -3.12500000E-01 -3.75000000E-01  0.00000000E+00
                      -2.50000000E-01 -3.75000000E-01  6.25000000E-02
                      -1.87500000E-01 -3.75000000E-01  1.25000000E-01
                      -1.25000000E-01 -3.75000000E-01  1.87500000E-01
                      -6.25000000E-02 -3.75000000E-01  2.50000000E-01
                      -6.25000000E-02  2.50000000E-01  0.00000000E+00
                      -1.25000000E-01  3.12500000E-01  0.00000000E+00
                      -1.87500000E-01  3.75000000E-01  0.00000000E+00
                      -2.50000000E-01  4.37500000E-01  0.00000000E+00
                      -3.12500000E-01  5.00000000E-01  0.00000000E+00
                      -2.50000000E-01  5.00000000E-01  6.25000000E-02
                      -1.87500000E-01  5.00000000E-01  1.25000000E-01
                      -3.75000000E-01 -4.37500000E-01  0.00000000E+00
                      -3.12500000E-01 -4.37500000E-01  6.25000000E-02
                      -2.50000000E-01 -4.37500000E-01  1.25000000E-01
                      -1.87500000E-01 -4.37500000E-01  1.87500000E-01
                      -1.25000000E-01 -4.37500000E-01  2.50000000E-01
                      -6.25000000E-02 -4.37500000E-01  3.12500000E-01
                      -6.25000000E-02  1.25000000E-01  0.00000000E+00
                      -1.25000000E-01  1.87500000E-01  0.00000000E+00
                      -1.87500000E-01  2.50000000E-01  0.00000000E+00
                      -2.50000000E-01  3.12500000E-01  0.00000000E+00
                       outvar_i_n : Printing only first  50 k-points.
         kptrlatt1       2   -2    2     -2    2    2     -2   -2    2
         kptrlatt2       4   -4    4     -4    4    4     -4   -4    4
         kptrlatt3       6   -6    6     -6    6    6     -6   -6    6
         kptrlatt4       8   -8    8     -8    8    8     -8   -8    8
          kptrlen1     2.03600000E+01
          kptrlen2     4.07200000E+01
          kptrlen3     6.10800000E+01
          kptrlen4     8.14400000E+01
P           mkmem1          2
P           mkmem2         10
P           mkmem3         28
P           mkmem4         60
            natom           2
            nband1          5
            nband2          5
            nband3          5
            nband4          5
           ndtset           4
            ngfft          24      24      24
             nkpt1          2
             nkpt2         10
             nkpt3         28
             nkpt4         60
            nstep          10
             nsym          48
           ntypat           1
              occ1     2.000000  2.000000  2.000000  2.000000  0.000000
              occ2     2.000000  2.000000  2.000000  2.000000  0.000000
              occ3     2.000000  2.000000  2.000000  2.000000  0.000000
              occ4     2.000000  2.000000  2.000000  2.000000  0.000000
            rprim      0.0000000000E+00  5.0000000000E-01  5.0000000000E-01
                       5.0000000000E-01  0.0000000000E+00  5.0000000000E-01
                       5.0000000000E-01  5.0000000000E-01  0.0000000000E+00
           shiftk      5.00000000E-01  5.00000000E-01  5.00000000E-01
          spgroup         227
           symrel      1  0  0   0  1  0   0  0  1      -1  0  0   0 -1  0   0  0 -1
                       0 -1  1   0 -1  0   1 -1  0       0  1 -1   0  1  0  -1  1  0
                      -1  0  0  -1  0  1  -1  1  0       1  0  0   1  0 -1   1 -1  0
                       0  1 -1   1  0 -1   0  0 -1       0 -1  1  -1  0  1   0  0  1
                      -1  0  0  -1  1  0  -1  0  1       1  0  0   1 -1  0   1  0 -1
                       0 -1  1   1 -1  0   0 -1  0       0  1 -1  -1  1  0   0  1  0
                       1  0  0   0  0  1   0  1  0      -1  0  0   0  0 -1   0 -1  0
                       0  1 -1   0  0 -1   1  0 -1       0 -1  1   0  0  1  -1  0  1
                      -1  0  1  -1  1  0  -1  0  0       1  0 -1   1 -1  0   1  0  0
                       0 -1  0   1 -1  0   0 -1  1       0  1  0  -1  1  0   0  1 -1
                       1  0 -1   0  0 -1   0  1 -1      -1  0  1   0  0  1   0 -1  1
                       0  1  0   0  0  1   1  0  0       0 -1  0   0  0 -1  -1  0  0
                       1  0 -1   0  1 -1   0  0 -1      -1  0  1   0 -1  1   0  0  1
                       0 -1  0   0 -1  1   1 -1  0       0  1  0   0  1 -1  -1  1  0
                      -1  0  1  -1  0  0  -1  1  0       1  0 -1   1  0  0   1 -1  0
                       0  1  0   1  0  0   0  0  1       0 -1  0  -1  0  0   0  0 -1
                       0  0 -1   0  1 -1   1  0 -1       0  0  1   0 -1  1  -1  0  1
                       1 -1  0   0 -1  1   0 -1  0      -1  1  0   0  1 -1   0  1  0
                       0  0  1   1  0  0   0  1  0       0  0 -1  -1  0  0   0 -1  0
                      -1  1  0  -1  0  0  -1  0  1       1 -1  0   1  0  0   1  0 -1
                       0  0  1   0  1  0   1  0  0       0  0 -1   0 -1  0  -1  0  0
                       1 -1  0   0 -1  0   0 -1  1      -1  1  0   0  1  0   0  1 -1
                       0  0 -1   1  0 -1   0  1 -1       0  0  1  -1  0  1   0 -1  1
                      -1  1  0  -1  0  1  -1  0  0       1 -1  0   1  0 -1   1  0  0
            tnons      0.0000000  0.0000000  0.0000000     0.2500000  0.2500000  0.2500000
                       0.0000000  0.0000000  0.0000000     0.2500000  0.2500000  0.2500000
                       0.0000000  0.0000000  0.0000000     0.2500000  0.2500000  0.2500000
                       0.0000000  0.0000000  0.0000000     0.2500000  0.2500000  0.2500000
                       0.0000000  0.0000000  0.0000000     0.2500000  0.2500000  0.2500000
                       0.0000000  0.0000000  0.0000000     0.2500000  0.2500000  0.2500000
                       0.0000000  0.0000000  0.0000000     0.2500000  0.2500000  0.2500000
                       0.0000000  0.0000000  0.0000000     0.2500000  0.2500000  0.2500000
                       0.0000000  0.0000000  0.0000000     0.2500000  0.2500000  0.2500000
                       0.0000000  0.0000000  0.0000000     0.2500000  0.2500000  0.2500000
                       0.0000000  0.0000000  0.0000000     0.2500000  0.2500000  0.2500000
                       0.0000000  0.0000000  0.0000000     0.2500000  0.2500000  0.2500000
                       0.0000000  0.0000000  0.0000000     0.2500000  0.2500000  0.2500000
                       0.0000000  0.0000000  0.0000000     0.2500000  0.2500000  0.2500000
                       0.0000000  0.0000000  0.0000000     0.2500000  0.2500000  0.2500000
                       0.0000000  0.0000000  0.0000000     0.2500000  0.2500000  0.2500000
                       0.0000000  0.0000000  0.0000000     0.2500000  0.2500000  0.2500000
                       0.0000000  0.0000000  0.0000000     0.2500000  0.2500000  0.2500000
                       0.0000000  0.0000000  0.0000000     0.2500000  0.2500000  0.2500000
                       0.0000000  0.0000000  0.0000000     0.2500000  0.2500000  0.2500000
                       0.0000000  0.0000000  0.0000000     0.2500000  0.2500000  0.2500000
                       0.0000000  0.0000000  0.0000000     0.2500000  0.2500000  0.2500000
                       0.0000000  0.0000000  0.0000000     0.2500000  0.2500000  0.2500000
                       0.0000000  0.0000000  0.0000000     0.2500000  0.2500000  0.2500000
           toldfe      1.00000000E-06 Hartree
            typat      1  1
              wtk1       0.75000    0.25000
              wtk2       0.09375    0.09375    0.09375    0.18750    0.09375    0.09375
                         0.09375    0.18750    0.03125    0.03125
              wtk3       0.02778    0.02778    0.02778    0.05556    0.02778    0.02778
                         0.05556    0.02778    0.05556    0.05556    0.02778    0.02778
                         0.02778    0.05556    0.02778    0.05556    0.05556    0.05556
                         0.02778    0.02778    0.02778    0.02778    0.02778    0.05556
                         0.05556    0.00926    0.00926    0.00926
              wtk4       0.01172    0.01172    0.01172    0.02344    0.01172    0.01172
                         0.02344    0.01172    0.02344    0.02344    0.01172    0.01172
                         0.02344    0.01172    0.02344    0.02344    0.01172    0.02344
                         0.02344    0.02344    0.01172    0.01172    0.01172    0.02344
                         0.01172    0.02344    0.02344    0.02344    0.01172    0.02344
                         0.02344    0.02344    0.02344    0.01172    0.01172    0.01172
                         0.01172    0.01172    0.02344    0.02344    0.01172    0.02344
                         0.02344    0.02344    0.02344    0.02344    0.01172    0.01172
                         0.01172    0.01172
                       outvars : Printing only first  50 k-points.
           xangst      0.0000000000E+00  0.0000000000E+00  0.0000000000E+00
                       1.3467559959E+00  1.3467559959E+00  1.3467559959E+00
            xcart      0.0000000000E+00  0.0000000000E+00  0.0000000000E+00
                       2.5450000000E+00  2.5450000000E+00  2.5450000000E+00
             xred      0.0000000000E+00  0.0000000000E+00  0.0000000000E+00
                       2.5000000000E-01  2.5000000000E-01  2.5000000000E-01
            znucl       14.00000
 
================================================================================
 
 chkinp: Checking input parameters for consistency, jdtset=   1.
 
 chkinp: Checking input parameters for consistency, jdtset=   2.
 
 chkinp: Checking input parameters for consistency, jdtset=   3.
 
 chkinp: Checking input parameters for consistency, jdtset=   4.
 DATA TYPE INFORMATION: 
 REAL:      Data type name: REAL(DP) 
            Kind value:      8
            Precision:      15
            Smallest nonnegligible quantity relative to 1: 0.22204460E-015
            Smallest positive number:                      0.22250739E-307
            Largest representable number:                  0.17976931E+309
 INTEGER:   Data type name: INTEGER(default) 
            Kind value: 4
            Bit size:   32
            Largest representable number: 2147483647
 LOGICAL:   Data type name: LOGICAL 
            Kind value: 4
 CHARACTER: Data type name: CHARACTER             Kind value: 1

  ==== OpenMP parallelism is OFF ====
 
  ==== Using MPI-2 specifications ==== 
  MPI-IO support is ON
  xmpi_tag_ub ................   1073741823
  xmpi_bsize_ch ..............            1
  xmpi_bsize_int .............            4
  xmpi_bsize_sp ..............            4
  xmpi_bsize_dp ..............            8
  xmpi_bsize_spc .............            8
  xmpi_bsize_dpc .............           16
  xmpio_bsize_frm ............            4
  xmpi_address_kind ..........            8
  xmpi_offset_kind ...........            8
  MPI_WTICK ..................   4.009461489994599E-010
 
================================================================================
== DATASET  1 ==================================================================
-   mpi_nproc: 1, omp_nthreads: -1 (-1 if OMP is not activated)
 
 
--- !COMMENT
src_file: m_xgScalapack.F90
src_line: 235
message: |
    xgScalapack in auto mode
...
 
 
 getdim_nloc: deduce lmnmax  =  18, lnmax  =   6,
                      lmnmaxso=  18, lnmaxso=   6.
 Exchange-correlation functional for the present dataset will be:
  GGA: Perdew-Burke-Ernzerhof functional - ixc=11
 Citation for XC functional:
  J.P.Perdew, K.Burke, M.Ernzerhof, PRL 77, 3865 (1996)
 
 Unit cell volume ucvol=  2.6374446E+02 bohr^3
 Angles (23,13,12)=  6.00000000E+01  6.00000000E+01  6.00000000E+01 degrees
 
 getcut: wavevector=  0.0000  0.0000  0.0000  ngfft=  24  24  24
         ecut(hartree)=     12.000   => boxcut(ratio)=   2.13807
- pspini: atom type   1  psp file is /home/mmm1483/Scratch/abinit_code/basic1/persudo/Si.psp8
- pspatm: opening atomic psp file    /home/mmm1483/Scratch/abinit_code/basic1/persudo/Si.psp8
- Si    ONCVPSP-3.2.3.1  r_core=   1.60303   1.72197   1.91712
- 14.00000   4.00000    170510                znucl, zion, pspdat
    8   11    2    4       600   0.00000      pspcod,pspxc,lmax,lloc,mmax,r2well
    5.99000000000000    4.00000000000000    0.00000000000000   rchrg,fchrg,qchrg
     nproj     2     2     2
     extension_switch     1
  valence charge (before rescaling) integrates to:    3.95328304696650     
  pspatm : epsatm=    9.34321699
         --- l  ekb(1:nproj) -->
             0    5.168965    0.829883
             1    2.571282    0.578307
             2   -2.427311   -0.488097
 pspatm: atomic psp has been read  and splines computed
 
   1.49491472E+02                                ecore*ucvol(ha*bohr**3)
 ==== Info on pseudopotentials ====
  Norm-conserving pseudopotentials
  Number of pseudopotentials ..    1
  Number of types of atoms   ..    1
  Scalar calculation (no spin-orbit term)
  Nonlocal part applied using Legendre polynomials
  Max number of non-local projectors over l and type   2
  Highest angular momentum +1 .......   3
  Max number of (l,n)   components ..   6
  Max number of (l,m,n) components ..   6
 
 Pseudo-Core Charge Info: 
   Number of radial points for pseudo-core charge .. 2501
   XC core-correction treatment (optnlxccc) ........    1
   Radius for pseudo-core charge for each type ..... 
 
  - Atom type    1 has pseudo-core radius ..  5.9900
 
 Info on the Q-grid used for form factors in spline form: 
   Number of q-points for radial functions ffspl ..   3001
   Number of q-points for vlspl ...................   3001
   vloc is computed in Reciprocal Space
   model core charge treated in real-space
 
  XC functional for type 1 is 11
  Pseudo valence available: yes
 
 symatm: atom number 1 is reached starting at atom
   1  2  1  2  1  2  1  2  1  2  1  2  1  2  1  2  1  2  1  2  1  2  1  2
   1  2  1  2  1  2  1  2  1  2  1  2  1  2  1  2  1  2  1  2  1  2  1  2
 symatm: atom number 2 is reached starting at atom
   2  1  2  1  2  1  2  1  2  1  2  1  2  1  2  1  2  1  2  1  2  1  2  1
   2  1  2  1  2  1  2  1  2  1  2  1  2  1  2  1  2  1  2  1  2  1  2  1
 wfconv:     5 bands initialized randomly with npw=   519, for ikpt=     1
 wfconv:     5 bands initialized randomly with npw=   525, for ikpt=     2
_setup2: Arith. and geom. avg. npw (full set) are     520.500     520.494
 initro: for itypat=  1, take pseudo charge density from pp file
 
================================================================================
 
 getcut: wavevector=  0.0000  0.0000  0.0000  ngfft=  24  24  24
         ecut(hartree)=     12.000   => boxcut(ratio)=   2.13807
 
 1/G**2 cut-off applied in the following step : cutoff-mode = CRYSTAL
 
 1/G**2 cut-off applied in the following step : cutoff-mode = CRYSTAL
 
 1/G**2 cut-off applied in the following step : cutoff-mode = CRYSTAL
 
 ITER STEP NUMBER     1
 Max number of non-self-consistent loops: 2
 Total charge density [el/Bohr^3]
)     Maximum=    9.2012E-02  at reduced coord.    0.1250    0.1250    0.6250
)     Minimum=    1.3896E-03  at reduced coord.    0.0000    0.0000    0.0000
   Integrated=    8.0000E+00
 
 1/G**2 cut-off applied in the following step : cutoff-mode = CRYSTAL
 ETOT  1  -8.4526651540766    -8.453E+00 6.645E-03 3.827E+00
 scprqt: <Vxc>= -3.4191133E-01 hartree
 
 Simple mixing update:
  residual square of the potential:    1.76050834899865
{SCF_istep: 1 , Vnl|psi>: 100 , wall_time: '  1.19 [s] '} <<< TIME
 
 ITER STEP NUMBER     2
 Max number of non-self-consistent loops: 2
 Total charge density [el/Bohr^3]
)     Maximum=    8.8387E-02  at reduced coord.    0.1250    0.1250    0.6250
)     Minimum=    1.3740E-03  at reduced coord.    0.0000    0.0000    0.0000
   Integrated=    8.0000E+00
 ETOT  2  -8.4552617763473    -2.597E-03 1.875E-05 8.911E-02
 scprqt: <Vxc>= -3.4356198E-01 hartree
 
 Pulay update with  1 previous iterations:
 mixing of old trial potential: alpha(m:m-4)=   1.16     -0.157
{SCF_istep: 2 , Vnl|psi>: 100 , wall_time: '  0.06 [s] '} <<< TIME
 
 ITER STEP NUMBER     3
 Total charge density [el/Bohr^3]
)     Maximum=    8.7877E-02  at reduced coord.    0.1250    0.1250    0.6250
)     Minimum=    1.3733E-03  at reduced coord.    0.0000    0.0000    0.0000
   Integrated=    8.0000E+00
 ETOT  3  -8.4553029510138    -4.117E-05 1.187E-06 4.159E-04
 scprqt: <Vxc>= -3.4392106E-01 hartree
 
 Pulay update with  2 previous iterations:
 mixing of old trial potential: alpha(m:m-4)=   1.15     -0.176      0.272E-01
{SCF_istep: 3 , Vnl|psi>: 47 , wall_time: '  0.02 [s] '} <<< TIME
 
 ITER STEP NUMBER     4
 Total charge density [el/Bohr^3]
)     Maximum=    8.7906E-02  at reduced coord.    0.1250    0.1250    0.6250
)     Minimum=    1.3743E-03  at reduced coord.    0.0000    0.0000    0.0000
   Integrated=    8.0000E+00
 ETOT  4  -8.4553030587075    -1.077E-07 6.089E-08 1.848E-05
 scprqt: <Vxc>= -3.4391953E-01 hartree
 
 Pulay update with  3 previous iterations:
 mixing of old trial potential: alpha(m:m-4)=   1.17     -0.182      0.189E-01 -0.463E-02
{SCF_istep: 4 , Vnl|psi>: 49 , wall_time: '  0.01 [s] '} <<< TIME
 
 ITER STEP NUMBER     5
 Total charge density [el/Bohr^3]
)     Maximum=    8.7900E-02  at reduced coord.    0.1250    0.1250    0.6250
)     Minimum=    1.3743E-03  at reduced coord.    0.0000    0.0000    0.0000
   Integrated=    8.0000E+00
 ETOT  5  -8.4553030645461    -5.839E-09 5.529E-10 2.852E-07
 scprqt: <Vxc>= -3.4392451E-01 hartree
 
 At SCF step    5, etot is converged : 
  for the second time, diff in etot=  5.839E-09 < toldfe=  1.000E-06
 
 -------------------------------------------------------------------------------------------------
 Ekinetic   = :     3.117991E+00 Ha ,    8.484485E+01 eV
 Evext_l    = :    -2.267676E+00 Ha ,   -6.170660E+01 eV
 Evext_nl   = :     1.157001E+00 Ha ,    3.148360E+01 eV
 Epsp_core  = :     5.668042E-01 Ha ,    1.542353E+01 eV
 Ehartree   = :     5.469354E-01 Ha ,    1.488287E+01 eV
 Exc_ks     = :    -3.109879E+00 Ha ,   -8.462411E+01 eV
 Enn        = :    -8.466480E+00 Ha ,   -2.303846E+02 eV
 -------------------------------------------------------------------------------------------------
 Etot       = :    -8.455303E+00 Ha ,   -2.300805E+02 eV
 -------------------------------------------------------------------------------------------------
 
 Cartesian components of stress tensor (hartree/bohr^3)
  sigma(1 1)= -1.63086217E-04  sigma(3 2)=  0.00000000E+00
  sigma(2 2)= -1.63086217E-04  sigma(3 1)=  0.00000000E+00
  sigma(3 3)= -1.63086217E-04  sigma(2 1)=  0.00000000E+00
 
 
 fftdatar_write: About to write data to: tbase3_3o_DS1_DEN with iomode: IO_MODE_FORTRAN
 IO operation , wall:  0.05 [s] , cpu:  0.00 [s] <<< TIME
- Creating HDf5 file with MPI-IO support: tbase3_3o_DS1_GSR.nc
 Integrated electronic density in atomic spheres:
 ------------------------------------------------
 Atom  Sphere_radius  Integrated_density
    1        2.00000          1.78855312
    2        2.00000          1.78855312
================================================================================
 
 ----iterations are completed or convergence reached----
 
 
 === Gap info ===
  >>>> For spin  1
   Minimum direct gap =   2.8792 [eV], located at k-point      :  -0.2500  0.0000  0.0000
   Fundamental gap    =   2.2643 [eV], Top of valence bands at :  -0.2500  0.0000  0.0000
                                       Bottom of conduction at :  -0.2500  0.5000  0.0000
 Mean square residual over all n,k,spin=   97.750E-12; max=  55.293E-11
  -0.2500  0.5000  0.0000    1  1.05106E-10 kpt; spin; max resid(k); each band:
  5.13E-11 5.90E-11 4.04E-11 2.41E-12 1.05E-10
  -0.2500  0.0000  0.0000    1  5.52929E-10 kpt; spin; max resid(k); each band:
  6.47E-11 8.46E-11 8.80E-12 8.34E-12 5.53E-10
 
   outwf: writing wavefunctions to: tbase3_3o_DS1_WFK with iomode: IO_MODE_FORTRAN_MASTER
 WFK output , wall:  0.01 [s] , cpu:  0.00 [s] <<< TIME
 prteigrs : about to open file tbase3_3o_DS1_EIG
 Fermi (or HOMO) energy (hartree) =   0.14022   Average Vxc (hartree)=  -0.34392
 Eigenvalues (hartree) for nkpt=   2  k points:
 kpt#   1, nband=  5, wtk=  0.75000, kpt= -0.2500  0.5000  0.0000 (reduced coord)
  -0.17506   -0.06854    0.03562    0.08563    0.22343
 kpt#   2, nband=  5, wtk=  0.25000, kpt= -0.2500  0.0000  0.0000 (reduced coord)
  -0.24727    0.02249    0.14022    0.14022    0.24603
 Total charge density [el/Bohr^3]
)     Maximum=    8.7900E-02  at reduced coord.    0.1250    0.1250    0.6250
)Next maximum=    8.7900E-02  at reduced coord.    0.1250    0.6250    0.1250
)     Minimum=    1.3743E-03  at reduced coord.    0.0000    0.0000    0.0000
)Next minimum=    1.3743E-03  at reduced coord.    0.2500    0.2500    0.2500
   Integrated=    8.0000E+00
 
 Cartesian components of stress tensor (hartree/bohr^3)
  sigma(1 1)= -1.63086217E-04  sigma(3 2)=  0.00000000E+00
  sigma(2 2)= -1.63086217E-04  sigma(3 1)=  0.00000000E+00
  sigma(3 3)= -1.63086217E-04  sigma(2 1)=  0.00000000E+00
 
-Cartesian components of stress tensor (GPa)         [Pressure=  4.7982E+00 GPa]
- sigma(1 1)= -4.79816137E+00  sigma(3 2)=  0.00000000E+00
- sigma(2 2)= -4.79816137E+00  sigma(3 1)=  0.00000000E+00
- sigma(3 3)= -4.79816137E+00  sigma(2 1)=  0.00000000E+00
 dataset: 1 , wall:  5.05 [s] , cpu:  0.64 [s] <<< TIME
 
================================================================================
== DATASET  2 ==================================================================
-   mpi_nproc: 1, omp_nthreads: -1 (-1 if OMP is not activated)
 
 
--- !COMMENT
src_file: m_xgScalapack.F90
src_line: 235
message: |
    xgScalapack in auto mode
...
 
 mkfilename : getwfk/=0, take file _WFK from output of DATASET   1.
 
 
 getdim_nloc: deduce lmnmax  =  18, lnmax  =   6,
                      lmnmaxso=  18, lnmaxso=   6.
 Exchange-correlation functional for the present dataset will be:
  GGA: Perdew-Burke-Ernzerhof functional - ixc=11
 Citation for XC functional:
  J.P.Perdew, K.Burke, M.Ernzerhof, PRL 77, 3865 (1996)
 
 Unit cell volume ucvol=  2.6374446E+02 bohr^3
 Angles (23,13,12)=  6.00000000E+01  6.00000000E+01  6.00000000E+01 degrees
 
 getcut: wavevector=  0.0000  0.0000  0.0000  ngfft=  24  24  24
         ecut(hartree)=     12.000   => boxcut(ratio)=   2.13807
 symatm: atom number 1 is reached starting at atom
   1  2  1  2  1  2  1  2  1  2  1  2  1  2  1  2  1  2  1  2  1  2  1  2
   1  2  1  2  1  2  1  2  1  2  1  2  1  2  1  2  1  2  1  2  1  2  1  2
 symatm: atom number 2 is reached starting at atom
   2  1  2  1  2  1  2  1  2  1  2  1  2  1  2  1  2  1  2  1  2  1  2  1
   2  1  2  1  2  1  2  1  2  1  2  1  2  1  2  1  2  1  2  1  2  1  2  1
 inwffil: examining the header of disk file: tbase3_3o_DS1_WFK
 
================================================================================
 
          - hdr_check: checking restart file header for consistency -
 
 
          current calculation                           restart file
          -------------------                           ------------
 
  calculation expects a wf_planewave        |  input file contains a wf_planewave
. ABINIT  code version 9.10.3               |  ABINIT  code version 9.10.3
. date 20250501 bantot       50 natom    2  |  date 20250501 bantot       10 natom    2
  nkpt      10 nsym 48 ngfft  24,  24,  24  |  nkpt       2 nsym 48 ngfft  24,  24,  24
  ntypat  1 ecut_eff  12.0000000            |  ntypat  1 ecut_eff  12.0000000
  usepaw  0                                 |  usepaw  0
  usewvl  0                                 |  usewvl  0
  rprimd:                                   |  rprimd:
     0.0000000   5.0900000   5.0900000      |     0.0000000   5.0900000   5.0900000
     5.0900000   0.0000000   5.0900000      |     5.0900000   0.0000000   5.0900000
     5.0900000   5.0900000   0.0000000      |     5.0900000   5.0900000   0.0000000
 
--- !COMMENT
src_file: m_hdr.F90
src_line: 3987
message: |
    input nkpt=10 not equal disk file nkpt=2
...
 
  symafm:                                   |  symafm:
    1  1  1  1  1  1  1  1  1  1  1  1      |    1  1  1  1  1  1  1  1  1  1  1  1
    1  1  1  1  1  1  1  1  1  1  1  1      |    1  1  1  1  1  1  1  1  1  1  1  1
    1  1  1  1  1  1  1  1  1  1  1  1      |    1  1  1  1  1  1  1  1  1  1  1  1
    1  1  1  1  1  1  1  1  1  1  1  1      |    1  1  1  1  1  1  1  1  1  1  1  1
  symrel:                                   |  symrel:
    1  0  0  0  1  0  0  0  1               |    1  0  0  0  1  0  0  0  1
   -1  0  0  0 -1  0  0  0 -1               |   -1  0  0  0 -1  0  0  0 -1
    0 -1  1  0 -1  0  1 -1  0               |    0 -1  1  0 -1  0  1 -1  0
    0  1 -1  0  1  0 -1  1  0               |    0  1 -1  0  1  0 -1  1  0
   -1  0  0 -1  0  1 -1  1  0               |   -1  0  0 -1  0  1 -1  1  0
    1  0  0  1  0 -1  1 -1  0               |    1  0  0  1  0 -1  1 -1  0
    0  1 -1  1  0 -1  0  0 -1               |    0  1 -1  1  0 -1  0  0 -1
    0 -1  1 -1  0  1  0  0  1               |    0 -1  1 -1  0  1  0  0  1
   -1  0  0 -1  1  0 -1  0  1               |   -1  0  0 -1  1  0 -1  0  1
    1  0  0  1 -1  0  1  0 -1               |    1  0  0  1 -1  0  1  0 -1
    0 -1  1  1 -1  0  0 -1  0               |    0 -1  1  1 -1  0  0 -1  0
    0  1 -1 -1  1  0  0  1  0               |    0  1 -1 -1  1  0  0  1  0
    1  0  0  0  0  1  0  1  0               |    1  0  0  0  0  1  0  1  0
   -1  0  0  0  0 -1  0 -1  0               |   -1  0  0  0  0 -1  0 -1  0
    0  1 -1  0  0 -1  1  0 -1               |    0  1 -1  0  0 -1  1  0 -1
    0 -1  1  0  0  1 -1  0  1               |    0 -1  1  0  0  1 -1  0  1
   -1  0  1 -1  1  0 -1  0  0               |   -1  0  1 -1  1  0 -1  0  0
    1  0 -1  1 -1  0  1  0  0               |    1  0 -1  1 -1  0  1  0  0
    0 -1  0  1 -1  0  0 -1  1               |    0 -1  0  1 -1  0  0 -1  1
    0  1  0 -1  1  0  0  1 -1               |    0  1  0 -1  1  0  0  1 -1
    1  0 -1  0  0 -1  0  1 -1               |    1  0 -1  0  0 -1  0  1 -1
   -1  0  1  0  0  1  0 -1  1               |   -1  0  1  0  0  1  0 -1  1
    0  1  0  0  0  1  1  0  0               |    0  1  0  0  0  1  1  0  0
    0 -1  0  0  0 -1 -1  0  0               |    0 -1  0  0  0 -1 -1  0  0
    1  0 -1  0  1 -1  0  0 -1               |    1  0 -1  0  1 -1  0  0 -1
   -1  0  1  0 -1  1  0  0  1               |   -1  0  1  0 -1  1  0  0  1
    0 -1  0  0 -1  1  1 -1  0               |    0 -1  0  0 -1  1  1 -1  0
    0  1  0  0  1 -1 -1  1  0               |    0  1  0  0  1 -1 -1  1  0
   -1  0  1 -1  0  0 -1  1  0               |   -1  0  1 -1  0  0 -1  1  0
    1  0 -1  1  0  0  1 -1  0               |    1  0 -1  1  0  0  1 -1  0
    0  1  0  1  0  0  0  0  1               |    0  1  0  1  0  0  0  0  1
    0 -1  0 -1  0  0  0  0 -1               |    0 -1  0 -1  0  0  0  0 -1
    0  0 -1  0  1 -1  1  0 -1               |    0  0 -1  0  1 -1  1  0 -1
    0  0  1  0 -1  1 -1  0  1               |    0  0  1  0 -1  1 -1  0  1
    1 -1  0  0 -1  1  0 -1  0               |    1 -1  0  0 -1  1  0 -1  0
   -1  1  0  0  1 -1  0  1  0               |   -1  1  0  0  1 -1  0  1  0
    0  0  1  1  0  0  0  1  0               |    0  0  1  1  0  0  0  1  0
    0  0 -1 -1  0  0  0 -1  0               |    0  0 -1 -1  0  0  0 -1  0
   -1  1  0 -1  0  0 -1  0  1               |   -1  1  0 -1  0  0 -1  0  1
    1 -1  0  1  0  0  1  0 -1               |    1 -1  0  1  0  0  1  0 -1
    0  0  1  0  1  0  1  0  0               |    0  0  1  0  1  0  1  0  0
    0  0 -1  0 -1  0 -1  0  0               |    0  0 -1  0 -1  0 -1  0  0
    1 -1  0  0 -1  0  0 -1  1               |    1 -1  0  0 -1  0  0 -1  1
   -1  1  0  0  1  0  0  1 -1               |   -1  1  0  0  1  0  0  1 -1
    0  0 -1  1  0 -1  0  1 -1               |    0  0 -1  1  0 -1  0  1 -1
    0  0  1 -1  0  1  0 -1  1               |    0  0  1 -1  0  1  0 -1  1
   -1  1  0 -1  0  1 -1  0  0               |   -1  1  0 -1  0  1 -1  0  0
    1 -1  0  1  0 -1  1  0  0               |    1 -1  0  1  0 -1  1  0  0
  typat:                                    |  typat:
    1  1                                    |    1  1
  so_psp  :                                 |  so_psp  :
    1                                       |    1
 
--- !COMMENT
src_file: m_hdr.F90
src_line: 4232
message: |
    input kptrlatt = 4 -4 4 -4 4 4 -4 -4 4  /= disk file kptrlatt = 2 -2 2 -2 2 2 -2 -2 2
...
 
 
--- !WARNING
src_file: m_hdr.F90
src_line: 4256
message: |
    input ival=0 not equal disk file ival=4
...
 
  tnons:                                    |  tnons:
     0.0000000   0.0000000   0.0000000      |     0.0000000   0.0000000   0.0000000
     0.2500000   0.2500000   0.2500000      |     0.2500000   0.2500000   0.2500000
     0.0000000   0.0000000   0.0000000      |     0.0000000   0.0000000   0.0000000
     0.2500000   0.2500000   0.2500000      |     0.2500000   0.2500000   0.2500000
     0.0000000   0.0000000   0.0000000      |     0.0000000   0.0000000   0.0000000
     0.2500000   0.2500000   0.2500000      |     0.2500000   0.2500000   0.2500000
     0.0000000   0.0000000   0.0000000      |     0.0000000   0.0000000   0.0000000
     0.2500000   0.2500000   0.2500000      |     0.2500000   0.2500000   0.2500000
     0.0000000   0.0000000   0.0000000      |     0.0000000   0.0000000   0.0000000
     0.2500000   0.2500000   0.2500000      |     0.2500000   0.2500000   0.2500000
     0.0000000   0.0000000   0.0000000      |     0.0000000   0.0000000   0.0000000
     0.2500000   0.2500000   0.2500000      |     0.2500000   0.2500000   0.2500000
     0.0000000   0.0000000   0.0000000      |     0.0000000   0.0000000   0.0000000
     0.2500000   0.2500000   0.2500000      |     0.2500000   0.2500000   0.2500000
     0.0000000   0.0000000   0.0000000      |     0.0000000   0.0000000   0.0000000
     0.2500000   0.2500000   0.2500000      |     0.2500000   0.2500000   0.2500000
     0.0000000   0.0000000   0.0000000      |     0.0000000   0.0000000   0.0000000
     0.2500000   0.2500000   0.2500000      |     0.2500000   0.2500000   0.2500000
     0.0000000   0.0000000   0.0000000      |     0.0000000   0.0000000   0.0000000
     0.2500000   0.2500000   0.2500000      |     0.2500000   0.2500000   0.2500000
     0.0000000   0.0000000   0.0000000      |     0.0000000   0.0000000   0.0000000
     0.2500000   0.2500000   0.2500000      |     0.2500000   0.2500000   0.2500000
     0.0000000   0.0000000   0.0000000      |     0.0000000   0.0000000   0.0000000
     0.2500000   0.2500000   0.2500000      |     0.2500000   0.2500000   0.2500000
     0.0000000   0.0000000   0.0000000      |     0.0000000   0.0000000   0.0000000
     0.2500000   0.2500000   0.2500000      |     0.2500000   0.2500000   0.2500000
     0.0000000   0.0000000   0.0000000      |     0.0000000   0.0000000   0.0000000
     0.2500000   0.2500000   0.2500000      |     0.2500000   0.2500000   0.2500000
     0.0000000   0.0000000   0.0000000      |     0.0000000   0.0000000   0.0000000
     0.2500000   0.2500000   0.2500000      |     0.2500000   0.2500000   0.2500000
     0.0000000   0.0000000   0.0000000      |     0.0000000   0.0000000   0.0000000
     0.2500000   0.2500000   0.2500000      |     0.2500000   0.2500000   0.2500000
     0.0000000   0.0000000   0.0000000      |     0.0000000   0.0000000   0.0000000
     0.2500000   0.2500000   0.2500000      |     0.2500000   0.2500000   0.2500000
     0.0000000   0.0000000   0.0000000      |     0.0000000   0.0000000   0.0000000
     0.2500000   0.2500000   0.2500000      |     0.2500000   0.2500000   0.2500000
     0.0000000   0.0000000   0.0000000      |     0.0000000   0.0000000   0.0000000
     0.2500000   0.2500000   0.2500000      |     0.2500000   0.2500000   0.2500000
     0.0000000   0.0000000   0.0000000      |     0.0000000   0.0000000   0.0000000
     0.2500000   0.2500000   0.2500000      |     0.2500000   0.2500000   0.2500000
     0.0000000   0.0000000   0.0000000      |     0.0000000   0.0000000   0.0000000
     0.2500000   0.2500000   0.2500000      |     0.2500000   0.2500000   0.2500000
     0.0000000   0.0000000   0.0000000      |     0.0000000   0.0000000   0.0000000
     0.2500000   0.2500000   0.2500000      |     0.2500000   0.2500000   0.2500000
     0.0000000   0.0000000   0.0000000      |     0.0000000   0.0000000   0.0000000
     0.2500000   0.2500000   0.2500000      |     0.2500000   0.2500000   0.2500000
     0.0000000   0.0000000   0.0000000      |     0.0000000   0.0000000   0.0000000
     0.2500000   0.2500000   0.2500000      |     0.2500000   0.2500000   0.2500000
   znucl:                                   |   znucl:
   14.00                                    |       14.00
  pseudopotential atom type  1:             |  pseudopotential atom type  1:
  pspso   0 pspxc  11                       |  pspso   0 pspxc  11
  pspdat   170510 pspcod    8 zion   4.0    |  pspdat   170510 pspcod    8 zion   4.0
  xred:                                     |  xred:
     0.0000000   0.0000000   0.0000000      |     0.0000000   0.0000000   0.0000000
     0.2500000   0.2500000   0.2500000      |     0.2500000   0.2500000   0.2500000
 
--- !COMMENT
src_file: m_hdr.F90
src_line: 4530
message: |
    Restart of self-consistent calculation need translated wavefunctions.
...
 
  Indeed, critical differences between current calculation and
  restart file have been detected in:
        * the number, position, or weight of k-points
        * the format of wavefunctions (istwfk)
================================================================================
-inwffil : will read wavefunctions from disk file tbase3_3o_DS1_WFK
 initwf: disk file gives npw= 519 nband= 5 for kpt number= 1
 initwf: 5 bands have been initialized from disk
 initwf: disk file gives npw= 525 nband= 5 for kpt number= 2
 initwf: 5 bands have been initialized from disk
- newkpt: read input wf with ikpt,npw=   1     531, make ikpt,npw=   1     531
- newkpt: read input wf with ikpt,npw=   2     526, make ikpt,npw=   2     526
- newkpt: read input wf with ikpt,npw=   3     524, make ikpt,npw=   3     524
- newkpt: read input wf with ikpt,npw=   4     523, make ikpt,npw=   4     523
- newkpt: read input wf with ikpt,npw=   5     524, make ikpt,npw=   5     524
- newkpt: read input wf with ikpt,npw=   6     524, make ikpt,npw=   6     524
- newkpt: read input wf with ikpt,npw=   7     519, make ikpt,npw=   7     519
- newkpt: read input wf with ikpt,npw=   8     519, make ikpt,npw=   8     519
- newkpt: read input wf with ikpt,npw=   9     534, make ikpt,npw=   9     534
- newkpt: read input wf with ikpt,npw=  10     522, make ikpt,npw=  10     522
_setup2: Arith. and geom. avg. npw (full set) are     523.500     523.486
 mkrho: echo density (plane-wave part only)
 Total charge density [el/Bohr^3]
)     Maximum=    8.7891E-02  at reduced coord.    0.1250    0.1250    0.6250
)     Minimum=    1.3806E-03  at reduced coord.    0.0000    0.0000    0.0000
   Integrated=    8.0000E+00
 
================================================================================
 
 getcut: wavevector=  0.0000  0.0000  0.0000  ngfft=  24  24  24
         ecut(hartree)=     12.000   => boxcut(ratio)=   2.13807
 
 ITER STEP NUMBER     1
 Max number of non-self-consistent loops: 2
 Total charge density [el/Bohr^3]
)     Maximum=    8.6662E-02  at reduced coord.    0.1250    0.1250    0.6250
)     Minimum=    1.4030E-03  at reduced coord.    0.0000    0.0000    0.0000
   Integrated=    8.0000E+00
 ETOT  1  -8.4612803881305    -8.461E+00 2.421E-04 2.124E-02
 scprqt: <Vxc>= -3.4486676E-01 hartree
 
 Simple mixing update:
  residual square of the potential:   1.389238098409650E-002
{SCF_istep: 1 , Vnl|psi>: 554 , wall_time: '  0.08 [s] '} <<< TIME
 
 ITER STEP NUMBER     2
 Max number of non-self-consistent loops: 2
 Total charge density [el/Bohr^3]
)     Maximum=    8.6915E-02  at reduced coord.    0.1250    0.1250    0.6250
)     Minimum=    1.4046E-03  at reduced coord.    0.0000    0.0000    0.0000
   Integrated=    8.0000E+00
 ETOT  2  -8.4612904444036    -1.006E-05 3.587E-07 8.845E-04
 scprqt: <Vxc>= -3.4476064E-01 hartree
 
 Pulay update with  1 previous iterations:
 mixing of old trial potential: alpha(m:m-4)=   1.17     -0.171
{SCF_istep: 2 , Vnl|psi>: 497 , wall_time: '  0.06 [s] '} <<< TIME
 
 ITER STEP NUMBER     3
 Total charge density [el/Bohr^3]
)     Maximum=    8.6927E-02  at reduced coord.    0.1250    0.1250    0.6250
)     Minimum=    1.4046E-03  at reduced coord.    0.0000    0.0000    0.0000
   Integrated=    8.0000E+00
 ETOT  3  -8.4612905164868    -7.208E-08 9.028E-08 5.535E-05
 scprqt: <Vxc>= -3.4476223E-01 hartree
 
 Pulay update with  2 previous iterations:
 mixing of old trial potential: alpha(m:m-4)=   1.35     -0.386      0.398E-01
{SCF_istep: 3 , Vnl|psi>: 222 , wall_time: '  0.03 [s] '} <<< TIME
 
 ITER STEP NUMBER     4
 Total charge density [el/Bohr^3]
)     Maximum=    8.6923E-02  at reduced coord.    0.1250    0.1250    0.6250
)     Minimum=    1.4045E-03  at reduced coord.    0.0000    0.0000    0.0000
   Integrated=    8.0000E+00
 ETOT  4  -8.4612905265946    -1.011E-08 6.799E-09 5.815E-07
 scprqt: <Vxc>= -3.4476875E-01 hartree
 
 At SCF step    4, etot is converged : 
  for the second time, diff in etot=  1.011E-08 < toldfe=  1.000E-06
 
 -------------------------------------------------------------------------------------------------
 Ekinetic   = :     3.098919E+00 Ha ,    8.432588E+01 eV
 Evext_l    = :    -2.252812E+00 Ha ,   -6.130214E+01 eV
 Evext_nl   = :     1.160526E+00 Ha ,    3.157953E+01 eV
 Epsp_core  = :     5.668042E-01 Ha ,    1.542353E+01 eV
 Ehartree   = :     5.372094E-01 Ha ,    1.461821E+01 eV
 Exc_ks     = :    -3.105457E+00 Ha ,   -8.450379E+01 eV
 Enn        = :    -8.466480E+00 Ha ,   -2.303846E+02 eV
 -------------------------------------------------------------------------------------------------
 Etot       = :    -8.461291E+00 Ha ,   -2.302434E+02 eV
 -------------------------------------------------------------------------------------------------
 
 Cartesian components of stress tensor (hartree/bohr^3)
  sigma(1 1)= -1.47697017E-04  sigma(3 2)=  0.00000000E+00
  sigma(2 2)= -1.47697017E-04  sigma(3 1)=  0.00000000E+00
  sigma(3 3)= -1.47697017E-04  sigma(2 1)=  0.00000000E+00
 
 
 fftdatar_write: About to write data to: tbase3_3o_DS2_DEN with iomode: IO_MODE_FORTRAN
 IO operation , wall:  0.01 [s] , cpu:  0.00 [s] <<< TIME
- Creating HDf5 file with MPI-IO support: tbase3_3o_DS2_GSR.nc
 Integrated electronic density in atomic spheres:
 ------------------------------------------------
 Atom  Sphere_radius  Integrated_density
    1        2.00000          1.78531016
    2        2.00000          1.78531016
================================================================================
 
 ----iterations are completed or convergence reached----
 
 
 === Gap info ===
  >>>> For spin  1
   Minimum direct gap =   2.8546 [eV], located at k-point      :  -0.3750  0.0000  0.0000
   Fundamental gap    =   1.1519 [eV], Top of valence bands at :  -0.1250  0.0000  0.0000
                                       Bottom of conduction at :  -0.3750  0.5000  0.0000
 Mean square residual over all n,k,spin=   21.754E-11; max=  67.986E-10
  -0.1250 -0.2500  0.0000    1  1.54927E-10 kpt; spin; max resid(k); each band:
  1.15E-10 2.92E-11 4.40E-12 5.78E-11 1.55E-10
  -0.1250  0.5000  0.0000    1  5.23314E-10 kpt; spin; max resid(k); each band:
  3.20E-11 1.42E-10 6.24E-11 3.67E-12 5.23E-10
  -0.2500 -0.3750  0.0000    1  1.92519E-10 kpt; spin; max resid(k); each band:
  1.23E-10 1.79E-11 5.75E-11 2.49E-12 1.93E-10
  -0.1250 -0.3750  0.1250    1  6.79861E-09 kpt; spin; max resid(k); each band:
  8.30E-11 5.87E-11 1.21E-10 3.28E-11 6.80E-09
  -0.1250  0.2500  0.0000    1  4.37272E-10 kpt; spin; max resid(k); each band:
  6.75E-11 8.81E-11 5.84E-11 1.75E-12 4.37E-10
  -0.2500  0.3750  0.0000    1  1.06506E-10 kpt; spin; max resid(k); each band:
  1.73E-11 1.06E-10 4.95E-11 3.25E-12 1.07E-10
  -0.3750  0.5000  0.0000    1  1.01768E-10 kpt; spin; max resid(k); each band:
  7.60E-11 2.93E-11 2.94E-11 2.58E-12 1.02E-10
  -0.2500  0.5000  0.1250    1  2.34283E-10 kpt; spin; max resid(k); each band:
  3.28E-11 4.31E-11 4.57E-11 1.13E-10 2.34E-10
  -0.1250  0.0000  0.0000    1  8.25193E-11 kpt; spin; max resid(k); each band:
  5.38E-11 2.68E-11 6.56E-12 6.43E-12 8.25E-11
  -0.3750  0.0000  0.0000    1  2.07243E-10 kpt; spin; max resid(k); each band:
  7.56E-11 1.58E-10 2.09E-12 2.10E-12 2.07E-10
 
   outwf: writing wavefunctions to: tbase3_3o_DS2_WFK with iomode: IO_MODE_FORTRAN_MASTER
 WFK output , wall:  0.01 [s] , cpu:  0.00 [s] <<< TIME
 prteigrs : about to open file tbase3_3o_DS2_EIG
 Fermi (or HOMO) energy (hartree) =   0.15671   Average Vxc (hartree)=  -0.34477
 Eigenvalues (hartree) for nkpt=  10  k points:
 kpt#   1, nband=  5, wtk=  0.09375, kpt= -0.1250 -0.2500  0.0000 (reduced coord)
  -0.25052    0.04816    0.11784    0.12119    0.24669
 kpt#   2, nband=  5, wtk=  0.09375, kpt= -0.1250  0.5000  0.0000 (reduced coord)
  -0.18727   -0.08440    0.08232    0.10885    0.24943
 kpt#   3, nband=  5, wtk=  0.09375, kpt= -0.2500 -0.3750  0.0000 (reduced coord)
  -0.21110   -0.01523    0.06703    0.08443    0.21646
 kpt#   4, nband=  5, wtk=  0.18750, kpt= -0.1250 -0.3750  0.1250 (reduced coord)
  -0.19501   -0.04953    0.04277    0.09489    0.27391
 kpt#   5, nband=  5, wtk=  0.09375, kpt= -0.1250  0.2500  0.0000 (reduced coord)
  -0.23140   -0.00443    0.08077    0.13860    0.27010
 kpt#   6, nband=  5, wtk=  0.09375, kpt= -0.2500  0.3750  0.0000 (reduced coord)
  -0.16836   -0.07952    0.01732    0.09661    0.23497
 kpt#   7, nband=  5, wtk=  0.09375, kpt= -0.3750  0.5000  0.0000 (reduced coord)
  -0.15478   -0.08577    0.03800    0.06662    0.19904
 kpt#   8, nband=  5, wtk=  0.18750, kpt= -0.2500  0.5000  0.1250 (reduced coord)
  -0.14794   -0.08972    0.01442    0.05589    0.25522
 kpt#   9, nband=  5, wtk=  0.03125, kpt= -0.1250  0.0000  0.0000 (reduced coord)
  -0.27068    0.10838    0.15671    0.15671    0.26177
 kpt#  10, nband=  5, wtk=  0.03125, kpt= -0.3750  0.0000  0.0000 (reduced coord)
  -0.21467   -0.05436    0.12682    0.12682    0.23172
 Total charge density [el/Bohr^3]
)     Maximum=    8.6923E-02  at reduced coord.    0.1250    0.1250    0.6250
)Next maximum=    8.6923E-02  at reduced coord.    0.1250    0.6250    0.1250
)     Minimum=    1.4045E-03  at reduced coord.    0.0000    0.0000    0.0000
)Next minimum=    1.4045E-03  at reduced coord.    0.2500    0.2500    0.2500
   Integrated=    8.0000E+00
 
 Cartesian components of stress tensor (hartree/bohr^3)
  sigma(1 1)= -1.47697017E-04  sigma(3 2)=  0.00000000E+00
  sigma(2 2)= -1.47697017E-04  sigma(3 1)=  0.00000000E+00
  sigma(3 3)= -1.47697017E-04  sigma(2 1)=  0.00000000E+00
 
-Cartesian components of stress tensor (GPa)         [Pressure=  4.3454E+00 GPa]
- sigma(1 1)= -4.34539552E+00  sigma(3 2)=  0.00000000E+00
- sigma(2 2)= -4.34539552E+00  sigma(3 1)=  0.00000000E+00
- sigma(3 3)= -4.34539552E+00  sigma(2 1)=  0.00000000E+00
 dataset: 2 , wall:  0.89 [s] , cpu:  0.38 [s] <<< TIME
 
================================================================================
== DATASET  3 ==================================================================
-   mpi_nproc: 1, omp_nthreads: -1 (-1 if OMP is not activated)
 
 
--- !COMMENT
src_file: m_xgScalapack.F90
src_line: 235
message: |
    xgScalapack in auto mode
...
 
 mkfilename : getwfk/=0, take file _WFK from output of DATASET   2.
 
 
 getdim_nloc: deduce lmnmax  =  18, lnmax  =   6,
                      lmnmaxso=  18, lnmaxso=   6.
 Exchange-correlation functional for the present dataset will be:
  GGA: Perdew-Burke-Ernzerhof functional - ixc=11
 Citation for XC functional:
  J.P.Perdew, K.Burke, M.Ernzerhof, PRL 77, 3865 (1996)
 
 Unit cell volume ucvol=  2.6374446E+02 bohr^3
 Angles (23,13,12)=  6.00000000E+01  6.00000000E+01  6.00000000E+01 degrees
 
 getcut: wavevector=  0.0000  0.0000  0.0000  ngfft=  24  24  24
         ecut(hartree)=     12.000   => boxcut(ratio)=   2.13807
 symatm: atom number 1 is reached starting at atom
   1  2  1  2  1  2  1  2  1  2  1  2  1  2  1  2  1  2  1  2  1  2  1  2
   1  2  1  2  1  2  1  2  1  2  1  2  1  2  1  2  1  2  1  2  1  2  1  2
 symatm: atom number 2 is reached starting at atom
   2  1  2  1  2  1  2  1  2  1  2  1  2  1  2  1  2  1  2  1  2  1  2  1
   2  1  2  1  2  1  2  1  2  1  2  1  2  1  2  1  2  1  2  1  2  1  2  1
 inwffil: examining the header of disk file: tbase3_3o_DS2_WFK
 
================================================================================
 
          - hdr_check: checking restart file header for consistency -
 
 
          current calculation                           restart file
          -------------------                           ------------
 
  calculation expects a wf_planewave        |  input file contains a wf_planewave
. ABINIT  code version 9.10.3               |  ABINIT  code version 9.10.3
. date 20250501 bantot      140 natom    2  |  date 20250501 bantot       50 natom    2
  nkpt      28 nsym 48 ngfft  24,  24,  24  |  nkpt      10 nsym 48 ngfft  24,  24,  24
  ntypat  1 ecut_eff  12.0000000            |  ntypat  1 ecut_eff  12.0000000
  usepaw  0                                 |  usepaw  0
  usewvl  0                                 |  usewvl  0
  rprimd:                                   |  rprimd:
     0.0000000   5.0900000   5.0900000      |     0.0000000   5.0900000   5.0900000
     5.0900000   0.0000000   5.0900000      |     5.0900000   0.0000000   5.0900000
     5.0900000   5.0900000   0.0000000      |     5.0900000   5.0900000   0.0000000
 
--- !COMMENT
src_file: m_hdr.F90
src_line: 3987
message: |
    input nkpt=28 not equal disk file nkpt=10
...
 
  symafm:                                   |  symafm:
    1  1  1  1  1  1  1  1  1  1  1  1      |    1  1  1  1  1  1  1  1  1  1  1  1
    1  1  1  1  1  1  1  1  1  1  1  1      |    1  1  1  1  1  1  1  1  1  1  1  1
    1  1  1  1  1  1  1  1  1  1  1  1      |    1  1  1  1  1  1  1  1  1  1  1  1
    1  1  1  1  1  1  1  1  1  1  1  1      |    1  1  1  1  1  1  1  1  1  1  1  1
  symrel:                                   |  symrel:
    1  0  0  0  1  0  0  0  1               |    1  0  0  0  1  0  0  0  1
   -1  0  0  0 -1  0  0  0 -1               |   -1  0  0  0 -1  0  0  0 -1
    0 -1  1  0 -1  0  1 -1  0               |    0 -1  1  0 -1  0  1 -1  0
    0  1 -1  0  1  0 -1  1  0               |    0  1 -1  0  1  0 -1  1  0
   -1  0  0 -1  0  1 -1  1  0               |   -1  0  0 -1  0  1 -1  1  0
    1  0  0  1  0 -1  1 -1  0               |    1  0  0  1  0 -1  1 -1  0
    0  1 -1  1  0 -1  0  0 -1               |    0  1 -1  1  0 -1  0  0 -1
    0 -1  1 -1  0  1  0  0  1               |    0 -1  1 -1  0  1  0  0  1
   -1  0  0 -1  1  0 -1  0  1               |   -1  0  0 -1  1  0 -1  0  1
    1  0  0  1 -1  0  1  0 -1               |    1  0  0  1 -1  0  1  0 -1
    0 -1  1  1 -1  0  0 -1  0               |    0 -1  1  1 -1  0  0 -1  0
    0  1 -1 -1  1  0  0  1  0               |    0  1 -1 -1  1  0  0  1  0
    1  0  0  0  0  1  0  1  0               |    1  0  0  0  0  1  0  1  0
   -1  0  0  0  0 -1  0 -1  0               |   -1  0  0  0  0 -1  0 -1  0
    0  1 -1  0  0 -1  1  0 -1               |    0  1 -1  0  0 -1  1  0 -1
    0 -1  1  0  0  1 -1  0  1               |    0 -1  1  0  0  1 -1  0  1
   -1  0  1 -1  1  0 -1  0  0               |   -1  0  1 -1  1  0 -1  0  0
    1  0 -1  1 -1  0  1  0  0               |    1  0 -1  1 -1  0  1  0  0
    0 -1  0  1 -1  0  0 -1  1               |    0 -1  0  1 -1  0  0 -1  1
    0  1  0 -1  1  0  0  1 -1               |    0  1  0 -1  1  0  0  1 -1
    1  0 -1  0  0 -1  0  1 -1               |    1  0 -1  0  0 -1  0  1 -1
   -1  0  1  0  0  1  0 -1  1               |   -1  0  1  0  0  1  0 -1  1
    0  1  0  0  0  1  1  0  0               |    0  1  0  0  0  1  1  0  0
    0 -1  0  0  0 -1 -1  0  0               |    0 -1  0  0  0 -1 -1  0  0
    1  0 -1  0  1 -1  0  0 -1               |    1  0 -1  0  1 -1  0  0 -1
   -1  0  1  0 -1  1  0  0  1               |   -1  0  1  0 -1  1  0  0  1
    0 -1  0  0 -1  1  1 -1  0               |    0 -1  0  0 -1  1  1 -1  0
    0  1  0  0  1 -1 -1  1  0               |    0  1  0  0  1 -1 -1  1  0
   -1  0  1 -1  0  0 -1  1  0               |   -1  0  1 -1  0  0 -1  1  0
    1  0 -1  1  0  0  1 -1  0               |    1  0 -1  1  0  0  1 -1  0
    0  1  0  1  0  0  0  0  1               |    0  1  0  1  0  0  0  0  1
    0 -1  0 -1  0  0  0  0 -1               |    0 -1  0 -1  0  0  0  0 -1
    0  0 -1  0  1 -1  1  0 -1               |    0  0 -1  0  1 -1  1  0 -1
    0  0  1  0 -1  1 -1  0  1               |    0  0  1  0 -1  1 -1  0  1
    1 -1  0  0 -1  1  0 -1  0               |    1 -1  0  0 -1  1  0 -1  0
   -1  1  0  0  1 -1  0  1  0               |   -1  1  0  0  1 -1  0  1  0
    0  0  1  1  0  0  0  1  0               |    0  0  1  1  0  0  0  1  0
    0  0 -1 -1  0  0  0 -1  0               |    0  0 -1 -1  0  0  0 -1  0
   -1  1  0 -1  0  0 -1  0  1               |   -1  1  0 -1  0  0 -1  0  1
    1 -1  0  1  0  0  1  0 -1               |    1 -1  0  1  0  0  1  0 -1
    0  0  1  0  1  0  1  0  0               |    0  0  1  0  1  0  1  0  0
    0  0 -1  0 -1  0 -1  0  0               |    0  0 -1  0 -1  0 -1  0  0
    1 -1  0  0 -1  0  0 -1  1               |    1 -1  0  0 -1  0  0 -1  1
   -1  1  0  0  1  0  0  1 -1               |   -1  1  0  0  1  0  0  1 -1
    0  0 -1  1  0 -1  0  1 -1               |    0  0 -1  1  0 -1  0  1 -1
    0  0  1 -1  0  1  0 -1  1               |    0  0  1 -1  0  1  0 -1  1
   -1  1  0 -1  0  1 -1  0  0               |   -1  1  0 -1  0  1 -1  0  0
    1 -1  0  1  0 -1  1  0  0               |    1 -1  0  1  0 -1  1  0  0
  typat:                                    |  typat:
    1  1                                    |    1  1
  so_psp  :                                 |  so_psp  :
    1                                       |    1
 
--- !COMMENT
src_file: m_hdr.F90
src_line: 4232
message: |
    input kptrlatt = 6 -6 6 -6 6 6 -6 -6 6  /= disk file kptrlatt = 4 -4 4 -4 4 4 -4 -4 4
...
 
 
--- !WARNING
src_file: m_hdr.F90
src_line: 4256
message: |
    input ival=0 not equal disk file ival=4
...
 
  tnons:                                    |  tnons:
     0.0000000   0.0000000   0.0000000      |     0.0000000   0.0000000   0.0000000
     0.2500000   0.2500000   0.2500000      |     0.2500000   0.2500000   0.2500000
     0.0000000   0.0000000   0.0000000      |     0.0000000   0.0000000   0.0000000
     0.2500000   0.2500000   0.2500000      |     0.2500000   0.2500000   0.2500000
     0.0000000   0.0000000   0.0000000      |     0.0000000   0.0000000   0.0000000
     0.2500000   0.2500000   0.2500000      |     0.2500000   0.2500000   0.2500000
     0.0000000   0.0000000   0.0000000      |     0.0000000   0.0000000   0.0000000
     0.2500000   0.2500000   0.2500000      |     0.2500000   0.2500000   0.2500000
     0.0000000   0.0000000   0.0000000      |     0.0000000   0.0000000   0.0000000
     0.2500000   0.2500000   0.2500000      |     0.2500000   0.2500000   0.2500000
     0.0000000   0.0000000   0.0000000      |     0.0000000   0.0000000   0.0000000
     0.2500000   0.2500000   0.2500000      |     0.2500000   0.2500000   0.2500000
     0.0000000   0.0000000   0.0000000      |     0.0000000   0.0000000   0.0000000
     0.2500000   0.2500000   0.2500000      |     0.2500000   0.2500000   0.2500000
     0.0000000   0.0000000   0.0000000      |     0.0000000   0.0000000   0.0000000
     0.2500000   0.2500000   0.2500000      |     0.2500000   0.2500000   0.2500000
     0.0000000   0.0000000   0.0000000      |     0.0000000   0.0000000   0.0000000
     0.2500000   0.2500000   0.2500000      |     0.2500000   0.2500000   0.2500000
     0.0000000   0.0000000   0.0000000      |     0.0000000   0.0000000   0.0000000
     0.2500000   0.2500000   0.2500000      |     0.2500000   0.2500000   0.2500000
     0.0000000   0.0000000   0.0000000      |     0.0000000   0.0000000   0.0000000
     0.2500000   0.2500000   0.2500000      |     0.2500000   0.2500000   0.2500000
     0.0000000   0.0000000   0.0000000      |     0.0000000   0.0000000   0.0000000
     0.2500000   0.2500000   0.2500000      |     0.2500000   0.2500000   0.2500000
     0.0000000   0.0000000   0.0000000      |     0.0000000   0.0000000   0.0000000
     0.2500000   0.2500000   0.2500000      |     0.2500000   0.2500000   0.2500000
     0.0000000   0.0000000   0.0000000      |     0.0000000   0.0000000   0.0000000
     0.2500000   0.2500000   0.2500000      |     0.2500000   0.2500000   0.2500000
     0.0000000   0.0000000   0.0000000      |     0.0000000   0.0000000   0.0000000
     0.2500000   0.2500000   0.2500000      |     0.2500000   0.2500000   0.2500000
     0.0000000   0.0000000   0.0000000      |     0.0000000   0.0000000   0.0000000
     0.2500000   0.2500000   0.2500000      |     0.2500000   0.2500000   0.2500000
     0.0000000   0.0000000   0.0000000      |     0.0000000   0.0000000   0.0000000
     0.2500000   0.2500000   0.2500000      |     0.2500000   0.2500000   0.2500000
     0.0000000   0.0000000   0.0000000      |     0.0000000   0.0000000   0.0000000
     0.2500000   0.2500000   0.2500000      |     0.2500000   0.2500000   0.2500000
     0.0000000   0.0000000   0.0000000      |     0.0000000   0.0000000   0.0000000
     0.2500000   0.2500000   0.2500000      |     0.2500000   0.2500000   0.2500000
     0.0000000   0.0000000   0.0000000      |     0.0000000   0.0000000   0.0000000
     0.2500000   0.2500000   0.2500000      |     0.2500000   0.2500000   0.2500000
     0.0000000   0.0000000   0.0000000      |     0.0000000   0.0000000   0.0000000
     0.2500000   0.2500000   0.2500000      |     0.2500000   0.2500000   0.2500000
     0.0000000   0.0000000   0.0000000      |     0.0000000   0.0000000   0.0000000
     0.2500000   0.2500000   0.2500000      |     0.2500000   0.2500000   0.2500000
     0.0000000   0.0000000   0.0000000      |     0.0000000   0.0000000   0.0000000
     0.2500000   0.2500000   0.2500000      |     0.2500000   0.2500000   0.2500000
     0.0000000   0.0000000   0.0000000      |     0.0000000   0.0000000   0.0000000
     0.2500000   0.2500000   0.2500000      |     0.2500000   0.2500000   0.2500000
   znucl:                                   |   znucl:
   14.00                                    |       14.00
  pseudopotential atom type  1:             |  pseudopotential atom type  1:
  pspso   0 pspxc  11                       |  pspso   0 pspxc  11
  pspdat   170510 pspcod    8 zion   4.0    |  pspdat   170510 pspcod    8 zion   4.0
  xred:                                     |  xred:
     0.0000000   0.0000000   0.0000000      |     0.0000000   0.0000000   0.0000000
     0.2500000   0.2500000   0.2500000      |     0.2500000   0.2500000   0.2500000
 
--- !COMMENT
src_file: m_hdr.F90
src_line: 4530
message: |
    Restart of self-consistent calculation need translated wavefunctions.
...
 
  Indeed, critical differences between current calculation and
  restart file have been detected in:
        * the number, position, or weight of k-points
        * the format of wavefunctions (istwfk)
================================================================================
-inwffil : will read wavefunctions from disk file tbase3_3o_DS2_WFK
 initwf: disk file gives npw= 531 nband= 5 for kpt number= 1
 initwf: 5 bands have been initialized from disk
 initwf: disk file gives npw= 526 nband= 5 for kpt number= 2
 initwf: 5 bands have been initialized from disk
 initwf: disk file gives npw= 524 nband= 5 for kpt number= 3
 initwf: 5 bands have been initialized from disk
 initwf: disk file gives npw= 523 nband= 5 for kpt number= 4
 initwf: 5 bands have been initialized from disk
 initwf: disk file gives npw= 524 nband= 5 for kpt number= 5
 initwf: 5 bands have been initialized from disk
 initwf: disk file gives npw= 524 nband= 5 for kpt number= 6
 initwf: 5 bands have been initialized from disk
 initwf: disk file gives npw= 519 nband= 5 for kpt number= 7
 initwf: 5 bands have been initialized from disk
 initwf: disk file gives npw= 519 nband= 5 for kpt number= 8
 initwf: 5 bands have been initialized from disk
 initwf: disk file gives npw= 534 nband= 5 for kpt number= 9
 initwf: 5 bands have been initialized from disk
 initwf: disk file gives npw= 522 nband= 5 for kpt number= 10
 initwf: 5 bands have been initialized from disk
- newkpt: read input wf with ikpt,npw=   1     533, make ikpt,npw=   1     533
- newkpt: read input wf with ikpt,npw=   2     525, make ikpt,npw=   2     525
- newkpt: read input wf with ikpt,npw=   3     526, make ikpt,npw=   3     526
- newkpt: read input wf with ikpt,npw=   4     530, make ikpt,npw=   4     530
- newkpt: read input wf with ikpt,npw=   5     527, make ikpt,npw=   5     527
- newkpt: read input wf with ikpt,npw=   6     525, make ikpt,npw=   6     525
- newkpt: read input wf with ikpt,npw=   7     527, make ikpt,npw=   7     527
- newkpt: read input wf with ikpt,npw=   8     522, make ikpt,npw=   8     522
- newkpt: read input wf with ikpt,npw=   9     524, make ikpt,npw=   9     524
- newkpt: read input wf with ikpt,npw=  10     523, make ikpt,npw=  10     523
- newkpt: read input wf with ikpt,npw=  11     523, make ikpt,npw=  11     523
- newkpt: read input wf with ikpt,npw=  12     527, make ikpt,npw=  12     527
- newkpt: read input wf with ikpt,npw=  13     519, make ikpt,npw=  13     519
- newkpt: read input wf with ikpt,npw=  14     527, make ikpt,npw=  14     527
- newkpt: read input wf with ikpt,npw=  15     523, make ikpt,npw=  15     523
- newkpt: read input wf with ikpt,npw=  16     523, make ikpt,npw=  16     523
- newkpt: read input wf with ikpt,npw=  17     522, make ikpt,npw=  17     522
- newkpt: read input wf with ikpt,npw=  18     520, make ikpt,npw=  18     520
- newkpt: read input wf with ikpt,npw=  19     531, make ikpt,npw=  19     531
- newkpt: read input wf with ikpt,npw=  20     525, make ikpt,npw=  20     525
- newkpt: read input wf with ikpt,npw=  21     523, make ikpt,npw=  21     523
- newkpt: read input wf with ikpt,npw=  22     518, make ikpt,npw=  22     518
- newkpt: read input wf with ikpt,npw=  23     514, make ikpt,npw=  23     514
- newkpt: read input wf with ikpt,npw=  24     515, make ikpt,npw=  24     515
- newkpt: read input wf with ikpt,npw=  25     514, make ikpt,npw=  25     514
- newkpt: read input wf with ikpt,npw=  26     534, make ikpt,npw=  26     534
- newkpt: read input wf with ikpt,npw=  27     525, make ikpt,npw=  27     525
- newkpt: read input wf with ikpt,npw=  28     522, make ikpt,npw=  28     522
_setup2: Arith. and geom. avg. npw (full set) are     523.278     523.255
 mkrho: echo density (plane-wave part only)
 Total charge density [el/Bohr^3]
)     Maximum=    8.8375E-02  at reduced coord.    0.1250    0.1250    0.6250
)     Minimum=    1.3955E-03  at reduced coord.    0.0000    0.0000    0.0000
   Integrated=    8.0000E+00
 
================================================================================
 
 getcut: wavevector=  0.0000  0.0000  0.0000  ngfft=  24  24  24
[...]
 kpt#  35, nband=  5, wtk=  0.01172, kpt= -0.1250  0.3125  0.0000 (reduced coord)
  -0.21414   -0.04038    0.07630    0.12869    0.26258
 kpt#  36, nband=  5, wtk=  0.01172, kpt= -0.1875  0.3750  0.0000 (reduced coord)
  -0.18350   -0.07493    0.04320    0.10880    0.24914
 kpt#  37, nband=  5, wtk=  0.01172, kpt= -0.2500  0.4375  0.0000 (reduced coord)
  -0.16451   -0.08478    0.02361    0.08917    0.22719
 kpt#  38, nband=  5, wtk=  0.01172, kpt= -0.3125  0.5000  0.0000 (reduced coord)
  -0.16689   -0.07243    0.02881    0.07430    0.20913
 kpt#  39, nband=  5, wtk=  0.02344, kpt= -0.2500  0.5000  0.0625 (reduced coord)
  -0.16298   -0.07929    0.02198    0.07440    0.22915
 kpt#  40, nband=  5, wtk=  0.02344, kpt= -0.1875  0.5000  0.1250 (reduced coord)
  -0.15978   -0.08486    0.02056    0.06994    0.26779
 kpt#  41, nband=  5, wtk=  0.01172, kpt= -0.3750 -0.4375  0.0000 (reduced coord)
  -0.17268   -0.06590    0.05792    0.06641    0.19339
 kpt#  42, nband=  5, wtk=  0.02344, kpt= -0.3125 -0.4375  0.0625 (reduced coord)
  -0.16935   -0.06827    0.04237    0.06297    0.21309
 kpt#  43, nband=  5, wtk=  0.02344, kpt= -0.2500 -0.4375  0.1250 (reduced coord)
  -0.16315   -0.07363    0.02682    0.05616    0.24973
 kpt#  44, nband=  5, wtk=  0.02344, kpt= -0.1875 -0.4375  0.1875 (reduced coord)
  -0.15513   -0.08166    0.01427    0.05508    0.29535
 kpt#  45, nband=  5, wtk=  0.02344, kpt= -0.1250 -0.4375  0.2500 (reduced coord)
  -0.14708   -0.09038    0.00712    0.06091    0.26281
 kpt#  46, nband=  5, wtk=  0.02344, kpt= -0.0625 -0.4375  0.3125 (reduced coord)
  -0.14119   -0.09741    0.00806    0.06895    0.22348
 kpt#  47, nband=  5, wtk=  0.01172, kpt= -0.0625  0.1250  0.0000 (reduced coord)
  -0.26628    0.09208    0.13342    0.16006    0.26949
 kpt#  48, nband=  5, wtk=  0.01172, kpt= -0.1250  0.1875  0.0000 (reduced coord)
  -0.24637    0.03363    0.08955    0.14855    0.27771
 kpt#  49, nband=  5, wtk=  0.01172, kpt= -0.1875  0.2500  0.0000 (reduced coord)
  -0.21790   -0.01767    0.04828    0.12918    0.26943
 kpt#  50, nband=  5, wtk=  0.01172, kpt= -0.2500  0.3125  0.0000 (reduced coord)
  -0.18385   -0.05905    0.01702    0.10631    0.24562
 prteigrs : prtvol=0 or 1, do not print more k-points.
 
 Total charge density [el/Bohr^3]
)     Maximum=    8.6890E-02  at reduced coord.    0.1250    0.1250    0.6250
)Next maximum=    8.6890E-02  at reduced coord.    0.1250    0.6250    0.1250
)     Minimum=    1.4055E-03  at reduced coord.    0.0000    0.0000    0.0000
)Next minimum=    1.4055E-03  at reduced coord.    0.2500    0.2500    0.2500
   Integrated=    8.0000E+00
 
 Cartesian components of stress tensor (hartree/bohr^3)
  sigma(1 1)= -1.47759556E-04  sigma(3 2)=  0.00000000E+00
  sigma(2 2)= -1.47759556E-04  sigma(3 1)=  0.00000000E+00
  sigma(3 3)= -1.47759556E-04  sigma(2 1)=  0.00000000E+00
 
-Cartesian components of stress tensor (GPa)         [Pressure=  4.3472E+00 GPa]
- sigma(1 1)= -4.34723550E+00  sigma(3 2)=  0.00000000E+00
- sigma(2 2)= -4.34723550E+00  sigma(3 1)=  0.00000000E+00
- sigma(3 3)= -4.34723550E+00  sigma(2 1)=  0.00000000E+00
 dataset: 4 , wall:  1.61 [s] , cpu:  1.21 [s] <<< TIME
 
== END DATASET(S) ==============================================================
================================================================================
  
 -outvars: echo values of variables after computation  --------
 
 These variables are accessible in NetCDF format (tbase3_3o_OUT.nc)

            acell      1.0180000000E+01  1.0180000000E+01  1.0180000000E+01 Bohr
              amu      2.80855000E+01
           diemac      1.20000000E+01
             ecut      1.20000000E+01 Hartree
           etotal1    -8.4553030645E+00
           etotal2    -8.4612905266E+00
           etotal3    -8.4613855371E+00
           etotal4    -8.4613885783E+00
            fcart1    -1.4812193762E-27  6.3480830408E-28  6.3480830408E-28
                       1.4812193762E-27 -6.3480830408E-28 -6.3480830408E-28
            fcart2     0.0000000000E+00 -2.1160276803E-28  0.0000000000E+00
                       0.0000000000E+00  2.1160276803E-28  0.0000000000E+00
            fcart3     1.6531466252E-30  1.6531466252E-30 -1.6531466252E-30
                      -1.6531466252E-30 -1.6531466252E-30  1.6531466252E-30
            fcart4     3.9675519005E-29 -1.3225173002E-29 -1.3225173002E-29
                      -3.9675519005E-29  1.3225173002E-29  1.3225173002E-29
-          fftalg         512
           getwfk          -1
              ixc          11
           jdtset        1    2    3    4
              kpt1    -2.50000000E-01  5.00000000E-01  0.00000000E+00
                      -2.50000000E-01  0.00000000E+00  0.00000000E+00
              kpt2    -1.25000000E-01 -2.50000000E-01  0.00000000E+00
                      -1.25000000E-01  5.00000000E-01  0.00000000E+00
                      -2.50000000E-01 -3.75000000E-01  0.00000000E+00
                      -1.25000000E-01 -3.75000000E-01  1.25000000E-01
                      -1.25000000E-01  2.50000000E-01  0.00000000E+00
                      -2.50000000E-01  3.75000000E-01  0.00000000E+00
                      -3.75000000E-01  5.00000000E-01  0.00000000E+00
                      -2.50000000E-01  5.00000000E-01  1.25000000E-01
                      -1.25000000E-01  0.00000000E+00  0.00000000E+00
                      -3.75000000E-01  0.00000000E+00  0.00000000E+00
              kpt3    -8.33333333E-02 -1.66666667E-01  0.00000000E+00
                      -8.33333333E-02 -3.33333333E-01  0.00000000E+00
                      -1.66666667E-01 -2.50000000E-01  0.00000000E+00
                      -8.33333333E-02 -2.50000000E-01  8.33333333E-02
                      -8.33333333E-02  5.00000000E-01  0.00000000E+00
                      -1.66666667E-01 -4.16666667E-01  0.00000000E+00
                      -8.33333333E-02 -4.16666667E-01  8.33333333E-02
                      -2.50000000E-01 -3.33333333E-01  0.00000000E+00
                      -1.66666667E-01 -3.33333333E-01  8.33333333E-02
                      -8.33333333E-02 -3.33333333E-01  1.66666667E-01
                      -8.33333333E-02  3.33333333E-01  0.00000000E+00
                      -1.66666667E-01  4.16666667E-01  0.00000000E+00
                      -2.50000000E-01  5.00000000E-01  0.00000000E+00
                      -1.66666667E-01  5.00000000E-01  8.33333333E-02
                      -3.33333333E-01 -4.16666667E-01  0.00000000E+00
                      -2.50000000E-01 -4.16666667E-01  8.33333333E-02
                      -1.66666667E-01 -4.16666667E-01  1.66666667E-01
                      -8.33333333E-02 -4.16666667E-01  2.50000000E-01
                      -8.33333333E-02  1.66666667E-01  0.00000000E+00
                      -1.66666667E-01  2.50000000E-01  0.00000000E+00
                      -2.50000000E-01  3.33333333E-01  0.00000000E+00
                      -3.33333333E-01  4.16666667E-01  0.00000000E+00
                      -4.16666667E-01  5.00000000E-01  0.00000000E+00
                      -3.33333333E-01  5.00000000E-01  8.33333333E-02
                      -2.50000000E-01  5.00000000E-01  1.66666667E-01
                      -8.33333333E-02  0.00000000E+00  0.00000000E+00
                      -2.50000000E-01  0.00000000E+00  0.00000000E+00
                      -4.16666667E-01  0.00000000E+00  0.00000000E+00
              kpt4    -6.25000000E-02 -1.25000000E-01  0.00000000E+00
                      -6.25000000E-02 -2.50000000E-01  0.00000000E+00
                      -1.25000000E-01 -1.87500000E-01  0.00000000E+00
                      -6.25000000E-02 -1.87500000E-01  6.25000000E-02
                      -6.25000000E-02 -3.75000000E-01  0.00000000E+00
                      -1.25000000E-01 -3.12500000E-01  0.00000000E+00
                      -6.25000000E-02 -3.12500000E-01  6.25000000E-02
                      -1.87500000E-01 -2.50000000E-01  0.00000000E+00
                      -1.25000000E-01 -2.50000000E-01  6.25000000E-02
                      -6.25000000E-02 -2.50000000E-01  1.25000000E-01
                      -6.25000000E-02  5.00000000E-01  0.00000000E+00
                      -1.25000000E-01 -4.37500000E-01  0.00000000E+00
                      -6.25000000E-02 -4.37500000E-01  6.25000000E-02
                      -1.87500000E-01 -3.75000000E-01  0.00000000E+00
                      -1.25000000E-01 -3.75000000E-01  6.25000000E-02
                      -6.25000000E-02 -3.75000000E-01  1.25000000E-01
                      -2.50000000E-01 -3.12500000E-01  0.00000000E+00
                      -1.87500000E-01 -3.12500000E-01  6.25000000E-02
                      -1.25000000E-01 -3.12500000E-01  1.25000000E-01
                      -6.25000000E-02 -3.12500000E-01  1.87500000E-01
                      -6.25000000E-02  3.75000000E-01  0.00000000E+00
                      -1.25000000E-01  4.37500000E-01  0.00000000E+00
                      -1.87500000E-01  5.00000000E-01  0.00000000E+00
                      -1.25000000E-01  5.00000000E-01  6.25000000E-02
                      -2.50000000E-01 -4.37500000E-01  0.00000000E+00
                      -1.87500000E-01 -4.37500000E-01  6.25000000E-02
                      -1.25000000E-01 -4.37500000E-01  1.25000000E-01
                      -6.25000000E-02 -4.37500000E-01  1.87500000E-01
                      -3.12500000E-01 -3.75000000E-01  0.00000000E+00
                      -2.50000000E-01 -3.75000000E-01  6.25000000E-02
                      -1.87500000E-01 -3.75000000E-01  1.25000000E-01
                      -1.25000000E-01 -3.75000000E-01  1.87500000E-01
                      -6.25000000E-02 -3.75000000E-01  2.50000000E-01
                      -6.25000000E-02  2.50000000E-01  0.00000000E+00
                      -1.25000000E-01  3.12500000E-01  0.00000000E+00
                      -1.87500000E-01  3.75000000E-01  0.00000000E+00
                      -2.50000000E-01  4.37500000E-01  0.00000000E+00
                      -3.12500000E-01  5.00000000E-01  0.00000000E+00
                      -2.50000000E-01  5.00000000E-01  6.25000000E-02
                      -1.87500000E-01  5.00000000E-01  1.25000000E-01
                      -3.75000000E-01 -4.37500000E-01  0.00000000E+00
                      -3.12500000E-01 -4.37500000E-01  6.25000000E-02
                      -2.50000000E-01 -4.37500000E-01  1.25000000E-01
                      -1.87500000E-01 -4.37500000E-01  1.87500000E-01
                      -1.25000000E-01 -4.37500000E-01  2.50000000E-01
                      -6.25000000E-02 -4.37500000E-01  3.12500000E-01
                      -6.25000000E-02  1.25000000E-01  0.00000000E+00
                      -1.25000000E-01  1.87500000E-01  0.00000000E+00
                      -1.87500000E-01  2.50000000E-01  0.00000000E+00
                      -2.50000000E-01  3.12500000E-01  0.00000000E+00
                       outvar_i_n : Printing only first  50 k-points.
         kptrlatt1       2   -2    2     -2    2    2     -2   -2    2
         kptrlatt2       4   -4    4     -4    4    4     -4   -4    4
         kptrlatt3       6   -6    6     -6    6    6     -6   -6    6
         kptrlatt4       8   -8    8     -8    8    8     -8   -8    8
          kptrlen1     2.03600000E+01
          kptrlen2     4.07200000E+01
          kptrlen3     6.10800000E+01
          kptrlen4     8.14400000E+01
P           mkmem1          2
P           mkmem2         10
P           mkmem3         28
P           mkmem4         60
            natom           2
            nband1          5
            nband2          5
            nband3          5
            nband4          5
           ndtset           4
            ngfft          24      24      24
             nkpt1          2
             nkpt2         10
             nkpt3         28
             nkpt4         60
            nstep          10
             nsym          48
           ntypat           1
              occ1     2.000000  2.000000  2.000000  2.000000  0.000000
              occ2     2.000000  2.000000  2.000000  2.000000  0.000000
              occ3     2.000000  2.000000  2.000000  2.000000  0.000000
              occ4     2.000000  2.000000  2.000000  2.000000  0.000000
            rprim      0.0000000000E+00  5.0000000000E-01  5.0000000000E-01
                       5.0000000000E-01  0.0000000000E+00  5.0000000000E-01
                       5.0000000000E-01  5.0000000000E-01  0.0000000000E+00
           shiftk      5.00000000E-01  5.00000000E-01  5.00000000E-01
          spgroup         227
           strten1    -1.6308621747E-04 -1.6308621747E-04 -1.6308621747E-04
                       0.0000000000E+00  0.0000000000E+00  0.0000000000E+00
           strten2    -1.4769701669E-04 -1.4769701669E-04 -1.4769701669E-04
                       0.0000000000E+00  0.0000000000E+00  0.0000000000E+00
           strten3    -1.4772051928E-04 -1.4772051928E-04 -1.4772051928E-04
                       0.0000000000E+00  0.0000000000E+00  0.0000000000E+00
           strten4    -1.4775955625E-04 -1.4775955625E-04 -1.4775955625E-04
                       0.0000000000E+00  0.0000000000E+00  0.0000000000E+00
           symrel      1  0  0   0  1  0   0  0  1      -1  0  0   0 -1  0   0  0 -1
                       0 -1  1   0 -1  0   1 -1  0       0  1 -1   0  1  0  -1  1  0
                      -1  0  0  -1  0  1  -1  1  0       1  0  0   1  0 -1   1 -1  0
                       0  1 -1   1  0 -1   0  0 -1       0 -1  1  -1  0  1   0  0  1
                      -1  0  0  -1  1  0  -1  0  1       1  0  0   1 -1  0   1  0 -1
                       0 -1  1   1 -1  0   0 -1  0       0  1 -1  -1  1  0   0  1  0
                       1  0  0   0  0  1   0  1  0      -1  0  0   0  0 -1   0 -1  0
                       0  1 -1   0  0 -1   1  0 -1       0 -1  1   0  0  1  -1  0  1
                      -1  0  1  -1  1  0  -1  0  0       1  0 -1   1 -1  0   1  0  0
                       0 -1  0   1 -1  0   0 -1  1       0  1  0  -1  1  0   0  1 -1
                       1  0 -1   0  0 -1   0  1 -1      -1  0  1   0  0  1   0 -1  1
                       0  1  0   0  0  1   1  0  0       0 -1  0   0  0 -1  -1  0  0
                       1  0 -1   0  1 -1   0  0 -1      -1  0  1   0 -1  1   0  0  1
                       0 -1  0   0 -1  1   1 -1  0       0  1  0   0  1 -1  -1  1  0
                      -1  0  1  -1  0  0  -1  1  0       1  0 -1   1  0  0   1 -1  0
                       0  1  0   1  0  0   0  0  1       0 -1  0  -1  0  0   0  0 -1
                       0  0 -1   0  1 -1   1  0 -1       0  0  1   0 -1  1  -1  0  1
                       1 -1  0   0 -1  1   0 -1  0      -1  1  0   0  1 -1   0  1  0
                       0  0  1   1  0  0   0  1  0       0  0 -1  -1  0  0   0 -1  0
                      -1  1  0  -1  0  0  -1  0  1       1 -1  0   1  0  0   1  0 -1
                       0  0  1   0  1  0   1  0  0       0  0 -1   0 -1  0  -1  0  0
                       1 -1  0   0 -1  0   0 -1  1      -1  1  0   0  1  0   0  1 -1
                       0  0 -1   1  0 -1   0  1 -1       0  0  1  -1  0  1   0 -1  1
                      -1  1  0  -1  0  1  -1  0  0       1 -1  0   1  0 -1   1  0  0
            tnons      0.0000000  0.0000000  0.0000000     0.2500000  0.2500000  0.2500000
                       0.0000000  0.0000000  0.0000000     0.2500000  0.2500000  0.2500000
                       0.0000000  0.0000000  0.0000000     0.2500000  0.2500000  0.2500000
                       0.0000000  0.0000000  0.0000000     0.2500000  0.2500000  0.2500000
                       0.0000000  0.0000000  0.0000000     0.2500000  0.2500000  0.2500000
                       0.0000000  0.0000000  0.0000000     0.2500000  0.2500000  0.2500000
                       0.0000000  0.0000000  0.0000000     0.2500000  0.2500000  0.2500000
                       0.0000000  0.0000000  0.0000000     0.2500000  0.2500000  0.2500000
                       0.0000000  0.0000000  0.0000000     0.2500000  0.2500000  0.2500000
                       0.0000000  0.0000000  0.0000000     0.2500000  0.2500000  0.2500000
                       0.0000000  0.0000000  0.0000000     0.2500000  0.2500000  0.2500000
                       0.0000000  0.0000000  0.0000000     0.2500000  0.2500000  0.2500000
                       0.0000000  0.0000000  0.0000000     0.2500000  0.2500000  0.2500000
                       0.0000000  0.0000000  0.0000000     0.2500000  0.2500000  0.2500000
                       0.0000000  0.0000000  0.0000000     0.2500000  0.2500000  0.2500000
                       0.0000000  0.0000000  0.0000000     0.2500000  0.2500000  0.2500000
                       0.0000000  0.0000000  0.0000000     0.2500000  0.2500000  0.2500000
                       0.0000000  0.0000000  0.0000000     0.2500000  0.2500000  0.2500000
                       0.0000000  0.0000000  0.0000000     0.2500000  0.2500000  0.2500000
                       0.0000000  0.0000000  0.0000000     0.2500000  0.2500000  0.2500000
                       0.0000000  0.0000000  0.0000000     0.2500000  0.2500000  0.2500000
                       0.0000000  0.0000000  0.0000000     0.2500000  0.2500000  0.2500000
                       0.0000000  0.0000000  0.0000000     0.2500000  0.2500000  0.2500000
                       0.0000000  0.0000000  0.0000000     0.2500000  0.2500000  0.2500000
           toldfe      1.00000000E-06 Hartree
            typat      1  1
              wtk1       0.75000    0.25000
              wtk2       0.09375    0.09375    0.09375    0.18750    0.09375    0.09375
                         0.09375    0.18750    0.03125    0.03125
              wtk3       0.02778    0.02778    0.02778    0.05556    0.02778    0.02778
                         0.05556    0.02778    0.05556    0.05556    0.02778    0.02778
                         0.02778    0.05556    0.02778    0.05556    0.05556    0.05556
                         0.02778    0.02778    0.02778    0.02778    0.02778    0.05556
                         0.05556    0.00926    0.00926    0.00926
              wtk4       0.01172    0.01172    0.01172    0.02344    0.01172    0.01172
                         0.02344    0.01172    0.02344    0.02344    0.01172    0.01172
                         0.02344    0.01172    0.02344    0.02344    0.01172    0.02344
                         0.02344    0.02344    0.01172    0.01172    0.01172    0.02344
                         0.01172    0.02344    0.02344    0.02344    0.01172    0.02344
                         0.02344    0.02344    0.02344    0.01172    0.01172    0.01172
                         0.01172    0.01172    0.02344    0.02344    0.01172    0.02344
                         0.02344    0.02344    0.02344    0.02344    0.01172    0.01172
                         0.01172    0.01172
                       outvars : Printing only first  50 k-points.
           xangst      0.0000000000E+00  0.0000000000E+00  0.0000000000E+00
                       1.3467559959E+00  1.3467559959E+00  1.3467559959E+00
            xcart      0.0000000000E+00  0.0000000000E+00  0.0000000000E+00
                       2.5450000000E+00  2.5450000000E+00  2.5450000000E+00
             xred      0.0000000000E+00  0.0000000000E+00  0.0000000000E+00
                       2.5000000000E-01  2.5000000000E-01  2.5000000000E-01
            znucl       14.00000
 
================================================================================
  
 Proc.   0 individual time (sec): cpu=          3.8  wall=         15.4
 
 Calculation completed.
.Delivered   3 WARNINGs and  14 COMMENTs to log file.

--- !FinalSummary
program: abinit
version: 9.10.3
start_datetime: Thu May 01 08:27:26 2025
end_datetime: Thu May 01 08:27:42 2025
overall_cpu_time:           3.8
overall_wall_time:          15.4
exit_requested_by_user: no 
timelimit: 0
pseudos: 
    Si  : 45c393525680abc7b25445b8ec62bf83
usepaw: 0
mpi_procs: 1
omp_threads: 1
num_warnings: 3
num_comments: 14
...
