  ABINIT 9.10.3
  
-instrng: 59 lines of input have been read from file mos2_1.abi
 
 
--- !COMMENT
src_file: m_dtfil.F90
src_line: 1441
message: |
    Output file: mos2_1.abo already exists.
...
 
 
--- !COMMENT
src_file: m_dtfil.F90
src_line: 1465
message: |
    Renaming old: mos2_1.abo to: mos2_1.abo0001
...
 

.Version 9.10.3 of ABINIT 
.(MPI version, prepared for a x86_64_linux_intel2021.6 computer) 

.Copyright (C) 1998-2022 ABINIT group . 
 ABINIT comes with ABSOLUTELY NO WARRANTY.
 It is free software, and you are welcome to redistribute it
 under certain conditions (GNU General Public License,
 see ~abinit/COPYING or http://www.gnu.org/copyleft/gpl.txt).

 ABINIT is a project of the Universite Catholique de Louvain,
 Corning Inc. and other collaborators, see ~abinit/doc/developers/contributors.txt .
 Please read https://docs.abinit.org/theory/acknowledgments for suggested
 acknowledgments of the ABINIT effort.
 For more information, see https://www.abinit.org .

.Starting date : Wed  7 May 2025.
- ( at 11h24 )
  
 
 ++++++++++++++++++++++++++++++++++++++++++++++++++++++++++++++++++++++++++++++
 
 === Build Information === 
  Version       : 9.10.3
  Build target  : x86_64_linux_intel2021.6
  Build date    : 20240126
 
 === Compiler Suite === 
  C compiler       : intel2021.6
  C++ compiler     : gnu2021.6
  Fortran compiler : intel2021.6
  CFLAGS           : -g -O2
  CXXFLAGS         : -g -O2 -mtune=native -march=native
  FCFLAGS          : -g -extend-source -nofpscomp     -I/shared/ucl/apps/NetCDF/4.9.2-in ...
  FC_LDFLAGS       :   -static-intel -static-libgcc
 
 === Optimizations === 
  Debug level        : basic
  Optimization level : standard
  Architecture       : intel_xeon
 
 === Multicore === 
  Parallel build : /shared/ucl/apps/intel/2020/impi/2019.6.166/intel64
  Parallel I/O   : 
  openMP support : 
  GPU support    : 
 
 === Connectors / Fallbacks === 
  LINALG flavor  : mkl
  FFT flavor     : dfti
  HDF5           : yes
  NetCDF         : yes
  NetCDF Fortran : yes
  LibXC          : yes
  Wannier90      : no
 
 === Experimental features === 
  Exports             : 
  GW double-precision : 
 
 ++++++++++++++++++++++++++++++++++++++++++++++++++++++++++++++++++++++++++++++
 

 ++++++++++++++++++++++++++++++++++++++++++++++++++++++++++++++++++++++++++++++
 Default optimizations:
   -O3


 Optimizations for 43_ptgroups:
   -O0


 ++++++++++++++++++++++++++++++++++++++++++++++++++++++++++++++++++++++++++++++


 ++++++++++++++++++++++++++++++++++++++++++++++++++++++++++++++++++++++++++++++
 CPP options activated during the build:

                  CC_INTEL                   CXX_GNU                  FC_INTEL
 
                 HAVE_DFTI HAVE_FC_ALLOCATABLE_DT...             HAVE_FC_ASYNC
 
  HAVE_FC_COMMAND_ARGUMENT      HAVE_FC_COMMAND_LINE        HAVE_FC_CONTIGUOUS
 
           HAVE_FC_CPUTIME              HAVE_FC_EXIT             HAVE_FC_FLUSH
 
             HAVE_FC_GAMMA   HAVE_FC_IEEE_ARITHMETIC   HAVE_FC_IEEE_EXCEPTIONS
 
             HAVE_FC_IOMSG     HAVE_FC_ISO_C_BINDING  HAVE_FC_ISO_FORTRAN_2008
 
        HAVE_FC_LONG_LINES        HAVE_FC_MOVE_ALLOC  HAVE_FC_ON_THE_FLY_SHAPE
 
           HAVE_FC_PRIVATE         HAVE_FC_PROTECTED           HAVE_FC_SHIFTLR
 
         HAVE_FC_STREAM_IO                 HAVE_HDF5             HAVE_HDF5_MPI
 
        HAVE_LIBPAW_ABINIT      HAVE_LIBTETRA_ABINIT                HAVE_LIBXC
 
         HAVE_LINALG_AXPBY        HAVE_LINALG_GEMM3M         HAVE_LINALG_GEMMT
 
  HAVE_LINALG_MKL_IMATCOPY   HAVE_LINALG_MKL_OMATADD  HAVE_LINALG_MKL_OMATCOPY
 
   HAVE_LINALG_MKL_THREADS     HAVE_LINALG_SCALAPACK                  HAVE_MPI
 
                 HAVE_MPI2       HAVE_MPI_IALLGATHER       HAVE_MPI_IALLREDUCE
 
        HAVE_MPI_IALLTOALL       HAVE_MPI_IALLTOALLV           HAVE_MPI_IBCAST
 
         HAVE_MPI_IGATHERV        HAVE_MPI_INTEGER16               HAVE_MPI_IO
 
 HAVE_MPI_TYPE_CREATE_S...               HAVE_NETCDF       HAVE_NETCDF_FORTRAN
 
   HAVE_NETCDF_FORTRAN_MPI           HAVE_NETCDF_MPI             HAVE_OS_LINUX
 
         HAVE_TIMER_ABINIT                                                      
 ++++++++++++++++++++++++++++++++++++++++++++++++++++++++++++++++++++++++++++++

- input  file    -> mos2_1.abi
- output file    -> mos2_1.abo
- root for input  files -> mos2_1i
- root for output files -> mos2_1o
 
 Netcdf library supports MPI-IO
-instrng: 59 lines of input have been read from file mos2_1.abi
 
 For atom type 1, psp file is ../persudo/Mo.psp8
 For atom type 2, psp file is ../persudo/S.psp8
  read the values zionpsp= 14.0 , pspcod=   8 , lmax=   2
  read the values zionpsp=  6.0 , pspcod=   8 , lmax=   2
 
 inpspheads: deduce mpsang = 3, n1xccc = 2501.

======================================================= 
 invars1m : enter jdtset= 1
 
 symlatt: the Bravais lattice is hP (primitive hexagonal)
  xred   is defined in input file
 ingeo: takes atomic coordinates from input array xred
 
 symlatt: the Bravais lattice is hP (primitive hexagonal)
 
 symlatt: the Bravais lattice is hP (primitive hexagonal)
 
--- !COMMENT
src_file: m_symfind.F90
src_line: 995
message: |
    The Bravais lattice determined only from the primitive
    vectors, bravais(1)=  6, is more symmetric
    than the real one, iholohedry=  1, obtained by taking into
    account the atomic positions. Start deforming the primitive vector set.
...
 
 
 symlatt: the Bravais lattice is oC (one-face-centered orthorhombic)
 
--- !COMMENT
src_file: m_symfind.F90
src_line: 1004
message: |
    The Bravais lattice determined from modified primitive
    vectors, bravais(1)=  3, has a lower symmetry than before,
    but is still more symmetric than the real one, iholohedry=  1
    obtained by taking into account the atomic positions.
...
 
 
 symlatt: the Bravais lattice is aP (primitive triclinic)
 symspgr: spgroup=   1  P1   (=C1^1)

======================================================= 
 invars1m : enter jdtset= 2
 
 symlatt: the Bravais lattice is hP (primitive hexagonal)
  xred   is defined in input file
 ingeo: takes atomic coordinates from input array xred
 
 symlatt: the Bravais lattice is hP (primitive hexagonal)
 
 symlatt: the Bravais lattice is hP (primitive hexagonal)
 
--- !COMMENT
src_file: m_symfind.F90
src_line: 995
message: |
    The Bravais lattice determined only from the primitive
    vectors, bravais(1)=  6, is more symmetric
    than the real one, iholohedry=  1, obtained by taking into
    account the atomic positions. Start deforming the primitive vector set.
...
 
 
 symlatt: the Bravais lattice is oC (one-face-centered orthorhombic)
 
--- !COMMENT
src_file: m_symfind.F90
src_line: 1004
message: |
    The Bravais lattice determined from modified primitive
    vectors, bravais(1)=  3, has a lower symmetry than before,
    but is still more symmetric than the real one, iholohedry=  1
    obtained by taking into account the atomic positions.
...
 
 
 symlatt: the Bravais lattice is aP (primitive triclinic)
 symspgr: spgroup=   1  P1   (=C1^1)
 Real(R)+Recip(G) space primitive vectors, cartesian coordinates (Bohr,Bohr^-1):
 R(1)=  2.9859563 -5.1718280  0.0000000  G(1)=  0.1674505 -0.0966776  0.0000000
 R(2)=  2.9859563  5.1718280  0.0000000  G(2)=  0.1674505  0.0966776  0.0000000
 R(3)=  0.0000000  0.0000000 37.7945227  G(3)=  0.0000000  0.0000000  0.0264589
 Unit cell volume ucvol=  1.1673104E+03 bohr^3
 Unit cell volume ucvol=  1.1673104E+03 bohr^3
 Angles (23,13,12)=  9.00000000E+01  9.00000000E+01  1.20000000E+02 degrees
 Angles (23,13,12)=  9.00000000E+01  9.00000000E+01  1.20000000E+02 degrees
  9.667761655238361E-002  5.581684794127313E-002  0.224829712272270     
 
 mknormpath : total number of points on the path:       68
 
 Number of divisions for each segment of the normalized path:
 0.00000 0.00000 0.00000 ==>  0.50000 0.00000 0.00000 ( ndiv:    17 )
 0.50000 0.00000 0.00000 ==>  0.33333 0.33333 0.00000 ( ndiv:    10 )
 0.33333 0.33333 0.00000 ==>  1.00000 1.00000 1.00000 ( ndiv:    40 )
 
 
 invars2: take the default value of fband=  1.25000000E-01
 
--- !WARNING
src_file: m_invars2.F90
src_line: 2098
message: |
    nbdbuf is not specified in input, using `nbdbuf = 2*nspinor` that may be too small!
    As a consequence, the NSCF cycle may have problems to converge the last bands within nstep iterations.
    To avoid this problem specify nbdbuf in the input file and adjust nband accordingly.
...
 
 Real(R)+Recip(G) space primitive vectors, cartesian coordinates (Bohr,Bohr^-1):
 R(1)=  2.9859563 -5.1718280  0.0000000  G(1)=  0.1674505 -0.0966776  0.0000000
 R(2)=  2.9859563  5.1718280  0.0000000  G(2)=  0.1674505  0.0966776  0.0000000
 R(3)=  0.0000000  0.0000000 37.7945227  G(3)=  0.0000000  0.0000000  0.0264589
 Unit cell volume ucvol=  1.1673104E+03 bohr^3
 Unit cell volume ucvol=  1.1673104E+03 bohr^3
 Angles (23,13,12)=  9.00000000E+01  9.00000000E+01  1.20000000E+02 degrees
 Angles (23,13,12)=  9.00000000E+01  9.00000000E+01  1.20000000E+02 degrees
  9.667761655238361E-002  5.581684794127313E-002  0.224829712272270     
 
 mknormpath : total number of points on the path:       68
 
 Number of divisions for each segment of the normalized path:
 0.00000 0.00000 0.00000 ==>  0.50000 0.00000 0.00000 ( ndiv:    17 )
 0.50000 0.00000 0.00000 ==>  0.33333 0.33333 0.00000 ( ndiv:    10 )
 0.33333 0.33333 0.00000 ==>  1.00000 1.00000 1.00000 ( ndiv:    40 )
 
 
 LMac pawujat is:            0
 LMac pawujat is:            0
 For input ecut=  3.000000E+01 best grid ngfft=      30      30     192
       max ecut=  3.117944E+01
 
 ==== FFT mesh ====
  FFT mesh divisions ........................    30   30  192
  Augmented FFT divisions ...................    31   31  192
  FFT algorithm .............................   512
  FFT cache size ............................    16
 getmpw: optimal value of mpw= 9186
 For input ecut=  3.000000E+01 best grid ngfft=      30      30     192
       max ecut=  3.117944E+01
 
 ==== FFT mesh ====
  FFT mesh divisions ........................    30   30  192
  Augmented FFT divisions ...................    31   31  192
  FFT algorithm .............................   512
  FFT cache size ............................    16
 getmpw: optimal value of mpw= 9256
 
 DATASET    1 : space group P1 (#  1); Bravais aP (primitive triclinic)
 
 getdim_nloc: deduce lmnmax  =  18, lnmax  =   6,
                      lmnmaxso=  18, lnmaxso=   6.
memory: analysis of memory needs
================================================================================
 Values of the parameters that define the memory need for DATASET  1.
     intxc =       0    ionmov =       0      iscf =       7    lmnmax =       6
     lnmax =       6     mgfft =     192  mpssoang =       3    mqgrid =    9319
     natom =       3  nloc_mem =       1    nspden =       1   nspinor =       1
    nsppol =       1      nsym =       1    n1xccc =    2501    ntypat =       2
    occopt =       1   xclevel =       2
-    mband =          14        mffmem =           1         mkmem =          10
       mpw =        9186          nfft =      172800          nkpt =          10
================================================================================
P This job should need less than                      75.199 Mbytes of memory.
  Rough estimation (10% accuracy) of disk space for files :
_ WF disk file :     19.625 Mbytes ; DEN or POT disk file :      1.320 Mbytes.
================================================================================
 
 Biggest array : f_fftgr(disk), with     21.0958 MBytes.
 memana : allocated an array of     21.096 Mbytes, for testing purposes.
 memana: allocated      75.199Mbytes, for testing purposes. 
 The job will continue.
 
 DATASET    2 : space group P1 (#  1); Bravais aP (primitive triclinic)
 
 getdim_nloc: deduce lmnmax  =  18, lnmax  =   6,
                      lmnmaxso=  18, lnmaxso=   6.
memory: analysis of memory needs
================================================================================
 Values of the parameters that define the memory need for DATASET  2.
     intxc =       0    ionmov =       0      iscf =      -2    lmnmax =       6
     lnmax =       6     mgfft =     192  mpssoang =       3    mqgrid =    9319
     natom =       3  nloc_mem =       1    nspden =       1   nspinor =       1
    nsppol =       1      nsym =       1    n1xccc =    2501    ntypat =       2
    occopt =       1   xclevel =       2
-    mband =           8        mffmem =           1         mkmem =          68
       mpw =        9256          nfft =      172800          nkpt =          68
================================================================================
P This job should need less than                     117.553 Mbytes of memory.
  Rough estimation (10% accuracy) of disk space for files :
_ WF disk file :     76.834 Mbytes ; DEN or POT disk file :      1.320 Mbytes.
================================================================================
 
 Biggest array : cg(disk), with     76.8340 MBytes.
 memana : allocated an array of     76.834 Mbytes, for testing purposes.
 memana: allocated     117.553Mbytes, for testing purposes. 
 The job will continue.
--------------------------------------------------------------------------------
------------- Echo of variables that govern the present computation ------------
--------------------------------------------------------------------------------
-
- outvars: echo of selected default values                                      
-   iomode0 =  0 , fftalg0 =512 , wfoptalg0 =  0
-
- outvars: echo of global parameters not present in the input file              
-  max_nthreads =    0
-
 -outvars: echo values of preprocessed input variables --------
 
 These variables are accessible in NetCDF format (mos2_1o_OUT.nc)

            acell      5.9719125251E+00  5.9719125251E+00  3.7794522658E+01 Bohr
              amu      9.59400000E+01  3.20660000E+01
      chksymbreak           0
             ecut      3.00000000E+01 Hartree
           enunit1          0
           enunit2          1
-          fftalg         512
           getden1          0
           getden2         -1
             iscf1          7
             iscf2         -2
           istwfk1       4    0    5    0    0    0    0    8    0    9
           istwfk2       2    0    0    0    0    0    0    0    0    0
                         0    0    0    0    0    0    0    3    0    0
                         0    0    0    0    0    0    0    0    0    0
                         0    0    0    0    0    0    0    0    0    0
                         0    0    0    0    0    0    0    0    0    0
                       outvar_i_n : Printing only first  50 k-points.
              ixc          11
           jdtset        1    2
              kpt1     0.00000000E+00  0.00000000E+00  5.00000000E-01
                       2.50000000E-01  0.00000000E+00  5.00000000E-01
                       5.00000000E-01  0.00000000E+00  5.00000000E-01
                       0.00000000E+00  2.50000000E-01  5.00000000E-01
                       2.50000000E-01  2.50000000E-01  5.00000000E-01
                       5.00000000E-01  2.50000000E-01  5.00000000E-01
                      -2.50000000E-01  2.50000000E-01  5.00000000E-01
                       0.00000000E+00  5.00000000E-01  5.00000000E-01
                       2.50000000E-01  5.00000000E-01  5.00000000E-01
                       5.00000000E-01  5.00000000E-01  5.00000000E-01
              kpt2     0.00000000E+00  0.00000000E+00  0.00000000E+00
                       2.94117647E-02  0.00000000E+00  0.00000000E+00
                       5.88235294E-02  0.00000000E+00  0.00000000E+00
                       8.82352941E-02  0.00000000E+00  0.00000000E+00
                       1.17647059E-01  0.00000000E+00  0.00000000E+00
                       1.47058824E-01  0.00000000E+00  0.00000000E+00
                       1.76470588E-01  0.00000000E+00  0.00000000E+00
                       2.05882353E-01  0.00000000E+00  0.00000000E+00
                       2.35294118E-01  0.00000000E+00  0.00000000E+00
                       2.64705882E-01  0.00000000E+00  0.00000000E+00
                       2.94117647E-01  0.00000000E+00  0.00000000E+00
                       3.23529412E-01  0.00000000E+00  0.00000000E+00
                       3.52941176E-01  0.00000000E+00  0.00000000E+00
                       3.82352941E-01  0.00000000E+00  0.00000000E+00
                       4.11764706E-01  0.00000000E+00  0.00000000E+00
                       4.41176471E-01  0.00000000E+00  0.00000000E+00
                       4.70588235E-01  0.00000000E+00  0.00000000E+00
                       5.00000000E-01  0.00000000E+00  0.00000000E+00
                       4.83333333E-01  3.33333333E-02  0.00000000E+00
                       4.66666667E-01  6.66666667E-02  0.00000000E+00
                       4.50000000E-01  1.00000000E-01  0.00000000E+00
                       4.33333333E-01  1.33333333E-01  0.00000000E+00
                       4.16666667E-01  1.66666667E-01  0.00000000E+00
                       4.00000000E-01  2.00000000E-01  0.00000000E+00
                       3.83333333E-01  2.33333333E-01  0.00000000E+00
                       3.66666667E-01  2.66666667E-01  0.00000000E+00
                       3.50000000E-01  3.00000000E-01  0.00000000E+00
                       3.33333333E-01  3.33333333E-01  0.00000000E+00
                       3.50000000E-01  3.50000000E-01  2.50000000E-02
                       3.66666667E-01  3.66666667E-01  5.00000000E-02
                       3.83333333E-01  3.83333333E-01  7.50000000E-02
                       4.00000000E-01  4.00000000E-01  1.00000000E-01
                       4.16666667E-01  4.16666667E-01  1.25000000E-01
                       4.33333333E-01  4.33333333E-01  1.50000000E-01
                       4.50000000E-01  4.50000000E-01  1.75000000E-01
                       4.66666667E-01  4.66666667E-01  2.00000000E-01
                       4.83333333E-01  4.83333333E-01  2.25000000E-01
                       5.00000000E-01  5.00000000E-01  2.50000000E-01
                       5.16666667E-01  5.16666667E-01  2.75000000E-01
                       5.33333333E-01  5.33333333E-01  3.00000000E-01
                       5.50000000E-01  5.50000000E-01  3.25000000E-01
                       5.66666667E-01  5.66666667E-01  3.50000000E-01
                       5.83333333E-01  5.83333333E-01  3.75000000E-01
                       6.00000000E-01  6.00000000E-01  4.00000000E-01
                       6.16666667E-01  6.16666667E-01  4.25000000E-01
                       6.33333333E-01  6.33333333E-01  4.50000000E-01
                       6.50000000E-01  6.50000000E-01  4.75000000E-01
                       6.66666667E-01  6.66666667E-01  5.00000000E-01
                       6.83333333E-01  6.83333333E-01  5.25000000E-01
                       7.00000000E-01  7.00000000E-01  5.50000000E-01
                       outvar_i_n : Printing only first  50 k-points.
           kptopt1          1
           kptopt2         -3
         kptrlatt        4    0    0      0    4    0      0    0    1
          kptrlen1     2.38876501E+01
          kptrlen2     3.00000000E+01
P           mkmem1         10
P           mkmem2         68
            natom           3
            nband1         14
            nband2          8
           nbdbuf1          0
           nbdbuf2          2
           ndtset           2
           ndivsm1          0
           ndivsm2         10
            ngfft          30      30     192
             nkpt1         10
             nkpt2         68
            nstep          20
             nsym           1
           ntypat           2
              occ      2.000000  2.000000  2.000000  2.000000  2.000000  2.000000
                       2.000000  2.000000  2.000000  2.000000  2.000000  2.000000
                       2.000000  0.000000
            rprim      5.0000000000E-01 -8.6602540378E-01  0.0000000000E+00
                       5.0000000000E-01  8.6602540378E-01  0.0000000000E+00
                       0.0000000000E+00  0.0000000000E+00  1.0000000000E+00
           shiftk1     0.00000000E+00  0.00000000E+00  5.00000000E-01
           shiftk2     5.00000000E-01  5.00000000E-01  5.00000000E-01
          spgroup           1
           toldfe1     1.00000000E-07 Hartree
           toldfe2     0.00000000E+00 Hartree
           tolwfr1     0.00000000E+00
           tolwfr2     1.00000000E-12
            typat      1  2  2
              wtk1       0.06250    0.12500    0.06250    0.12500    0.12500    0.12500
                         0.12500    0.06250    0.12500    0.06250
              wtk2       1.00000    1.00000    1.00000    1.00000    1.00000    1.00000
                         1.00000    1.00000    1.00000    1.00000    1.00000    1.00000
                         1.00000    1.00000    1.00000    1.00000    1.00000    1.00000
                         1.00000    1.00000    1.00000    1.00000    1.00000    1.00000
                         1.00000    1.00000    1.00000    1.00000    1.00000    1.00000
                         1.00000    1.00000    1.00000    1.00000    1.00000    1.00000
                         1.00000    1.00000    1.00000    1.00000    1.00000    1.00000
                         1.00000    1.00000    1.00000    1.00000    1.00000    1.00000
                         1.00000    1.00000
                       outvars : Printing only first  50 k-points.
           xangst      1.5801000000E+00  9.1227116034E-01  0.0000000000E+00
                       1.5801000000E+00 -9.1227116034E-01 -1.5850000000E+00
                       1.5801000000E+00 -9.1227116034E-01  1.5850000000E+00
            xcart      2.9859562626E+00  1.7239426520E+00  0.0000000000E+00
                       2.9859562626E+00 -1.7239426520E+00 -2.9952159206E+00
                       2.9859562626E+00 -1.7239426520E+00  2.9952159206E+00
             xred      3.3333333333E-01  6.6666666667E-01  0.0000000000E+00
                       6.6666666667E-01  3.3333333333E-01 -7.9250000000E-02
                       6.6666666667E-01  3.3333333333E-01  7.9250000000E-02
            znucl       42.00000   16.00000
 
================================================================================
 
 chkinp: Checking input parameters for consistency, jdtset=   1.
 
 chkinp: Checking input parameters for consistency, jdtset=   2.
 DATA TYPE INFORMATION: 
 REAL:      Data type name: REAL(DP) 
            Kind value:      8
            Precision:      15
            Smallest nonnegligible quantity relative to 1: 0.22204460E-015
            Smallest positive number:                      0.22250739E-307
            Largest representable number:                  0.17976931E+309
 INTEGER:   Data type name: INTEGER(default) 
            Kind value: 4
            Bit size:   32
            Largest representable number: 2147483647
 LOGICAL:   Data type name: LOGICAL 
            Kind value: 4
 CHARACTER: Data type name: CHARACTER             Kind value: 1

  ==== OpenMP parallelism is OFF ====
 
  ==== Using MPI-2 specifications ==== 
  MPI-IO support is ON
  xmpi_tag_ub ................   1073741823
  xmpi_bsize_ch ..............            1
  xmpi_bsize_int .............            4
  xmpi_bsize_sp ..............            4
  xmpi_bsize_dp ..............            8
  xmpi_bsize_spc .............            8
  xmpi_bsize_dpc .............           16
  xmpio_bsize_frm ............            4
  xmpi_address_kind ..........            8
  xmpi_offset_kind ...........            8
  MPI_WTICK ..................   4.009474878269727E-010
 
================================================================================
== DATASET  1 ==================================================================
-   mpi_nproc: 1, omp_nthreads: -1 (-1 if OMP is not activated)
 
 
--- !COMMENT
src_file: m_xgScalapack.F90
src_line: 235
message: |
    xgScalapack in auto mode
...
 
 
 getdim_nloc: deduce lmnmax  =  18, lnmax  =   6,
                      lmnmaxso=  18, lnmaxso=   6.
 Exchange-correlation functional for the present dataset will be:
  GGA: Perdew-Burke-Ernzerhof functional - ixc=11
 Citation for XC functional:
  J.P.Perdew, K.Burke, M.Ernzerhof, PRL 77, 3865 (1996)
 
 Unit cell volume ucvol=  1.1673104E+03 bohr^3
 Angles (23,13,12)=  9.00000000E+01  9.00000000E+01  1.20000000E+02 degrees
 
 getcut: wavevector=  0.0000  0.0000  0.0000  ngfft=  30  30 192
         ecut(hartree)=     30.000   => boxcut(ratio)=   2.03894
- pspini: atom type   1  psp file is ../persudo/Mo.psp8
- pspatm: opening atomic psp file    ../persudo/Mo.psp8
- Mo    ONCVPSP-3.2.3.1  r_core=   1.45541   1.45541   1.35488
- 42.00000  14.00000    170510                znucl, zion, pspdat
    8   11    2    4       600   0.00000      pspcod,pspxc,lmax,lloc,mmax,r2well
    5.99000000000000    3.00000000000000    0.00000000000000   rchrg,fchrg,qchrg
     nproj     2     2     2
     extension_switch     1
  valence charge (before rescaling) integrates to:    13.9106199290666     
  pspatm : epsatm=   15.95693586
         --- l  ekb(1:nproj) -->
             0   13.833287    1.350687
             1    8.015347    1.134034
             2    2.765699    0.969071
 pspatm: atomic psp has been read  and splines computed
 
- pspini: atom type   2  psp file is ../persudo/S.psp8
- pspatm: opening atomic psp file    ../persudo/S.psp8
- S     ONCVPSP-4.0.1  r_core=   1.45687   1.45687   1.45687
- 16.00000   6.00000    220131                znucl, zion, pspdat
    8   11    2    4       600   0.00000      pspcod,pspxc,lmax,lloc,mmax,r2well
    5.99000000000000    6.00000000000000    0.00000000000000   rchrg,fchrg,qchrg
     nproj     2     2     2
     extension_switch     1
  valence charge (before rescaling) integrates to:    5.98952054080779     
  pspatm : epsatm=    9.04179351
         --- l  ekb(1:nproj) -->
             0    6.774234    0.542270
             1    3.022426    0.737017
             2   -5.033160   -1.531047
 pspatm: atomic psp has been read  and splines computed
 
   8.85053595E+02                                ecore*ucvol(ha*bohr**3)
 ==== Info on pseudopotentials ====
  Norm-conserving pseudopotentials
  Number of pseudopotentials ..    2
  Number of types of atoms   ..    2
  Scalar calculation (no spin-orbit term)
  Nonlocal part applied using Legendre polynomials
  Max number of non-local projectors over l and type   2
  Highest angular momentum +1 .......   3
  Max number of (l,n)   components ..   6
  Max number of (l,m,n) components ..   6
 
 Pseudo-Core Charge Info: 
   Number of radial points for pseudo-core charge .. 2501
   XC core-correction treatment (optnlxccc) ........    1
   Radius for pseudo-core charge for each type ..... 
 
  - Atom type    1 has pseudo-core radius ..  5.9900
  - Atom type    2 has pseudo-core radius ..  5.9900
 
 Info on the Q-grid used for form factors in spline form: 
   Number of q-points for radial functions ffspl ..   9319
   Number of q-points for vlspl ...................   9319
   vloc is computed in Reciprocal Space
   model core charge treated in real-space
 
  XC functional for type 1 is 11
  Pseudo valence available: yes
  XC functional for type 2 is 11
  Pseudo valence available: yes
 
 wfconv:    14 bands initialized randomly with npw=  4601, for ikpt=     1
 wfconv:    14 bands initialized randomly with npw=  9186, for ikpt=     2
 wfconv:    14 bands initialized randomly with npw=  4574, for ikpt=     3
 wfconv:    14 bands initialized randomly with npw=  9186, for ikpt=     4
 wfconv:    14 bands initialized randomly with npw=  9138, for ikpt=     5
 wfconv:    14 bands initialized randomly with npw=  9138, for ikpt=     6
 wfconv:    14 bands initialized randomly with npw=  9186, for ikpt=     7
 wfconv:    14 bands initialized randomly with npw=  4574, for ikpt=     8
 wfconv:    14 bands initialized randomly with npw=  9138, for ikpt=     9
 wfconv:    14 bands initialized randomly with npw=  4574, for ikpt=    10
_setup2: Arith. and geom. avg. npw (full set) are    9161.875    9161.844
 initro: for itypat=  1, take pseudo charge density from pp file
 initro: for itypat=  2, take pseudo charge density from pp file
 
================================================================================
 
 getcut: wavevector=  0.0000  0.0000  0.0000  ngfft=  30  30 192
         ecut(hartree)=     30.000   => boxcut(ratio)=   2.03894
 
 1/G**2 cut-off applied in the following step : cutoff-mode = CRYSTAL
 
 1/G**2 cut-off applied in the following step : cutoff-mode = CRYSTAL
 
 1/G**2 cut-off applied in the following step : cutoff-mode = CRYSTAL
 
--- !WARNING
src_file: m_drivexc.F90
src_line: 783
message: |
    Density went too small (lower than xc_denpos) at 29068 points
    and was set to xc_denpos =   1.00E-14. Lowest was  -0.36E-05.
    This might be due to (1) too low boxcut or (2) too low ecut for
     pseudopotential core charge, or (3) too low ecut for estimated initial density.
     Possible workarounds : increase ecut, or define the input variable densty,
     with a value larger than the guess for the decay length, or initialize your,
     density with a preliminary LDA or GGA-PBE if you are using a more exotic xc functional.
...
 
 
 ITER STEP NUMBER     1
 Max number of non-self-consistent loops: 2
 Total charge density [el/Bohr^3]
)     Maximum=    8.6018E-01  at reduced coord.    0.3000    0.6667    0.9792
)     Minimum=    3.2473E-05  at reduced coord.    0.7667    0.8000    0.4063
   Integrated=    2.6000E+01
 
 1/G**2 cut-off applied in the following step : cutoff-mode = CRYSTAL
 ETOT  1  -91.815004736262    -9.182E+01 1.076E-01 4.000E+03
 scprqt: <Vxc>= -1.7201076E-01 hartree
 
 Simple mixing update:
  residual square of the potential:    418.734340697122
{SCF_istep: 1 , Vnl|psi>: 1400 , wall_time: '  8.46 [s] '} <<< TIME
 
 ITER STEP NUMBER     2
 Max number of non-self-consistent loops: 2
 Total charge density [el/Bohr^3]
)     Maximum=    1.1580E+00  at reduced coord.    0.2667    0.5000    0.0000
)     Minimum=    2.9704E-07  at reduced coord.    0.7000    0.4000    0.3646
   Integrated=    2.6000E+01
 ETOT  2  -89.673643914317     2.141E+00 4.565E-02 3.349E+04
 scprqt: <Vxc>= -1.4300117E-01 hartree
 
 Pulay update with  1 previous iterations:
 mixing of old trial potential: alpha(m:m-4)=  0.283      0.717
{SCF_istep: 2 , Vnl|psi>: 1397 , wall_time: '  4.73 [s] '} <<< TIME
 
 ITER STEP NUMBER     3
 Total charge density [el/Bohr^3]
)     Maximum=    9.4954E-01  at reduced coord.    0.2333    0.7333    0.0000
)     Minimum=    1.1517E-07  at reduced coord.    0.5000    0.0667    0.6042
   Integrated=    2.6000E+01
 ETOT  3  -92.354492344174    -2.681E+00 6.624E-02 5.243E+02
 scprqt: <Vxc>= -1.4612766E-01 hartree
 
 Pulay update with  2 previous iterations:
 mixing of old trial potential: alpha(m:m-4)=  0.437      0.135      0.428
{SCF_istep: 3 , Vnl|psi>: 671 , wall_time: '  2.24 [s] '} <<< TIME
 
 ITER STEP NUMBER     4
 Total charge density [el/Bohr^3]
)     Maximum=    9.4028E-01  at reduced coord.    0.2333    0.7333    0.0000
)     Minimum=    1.2298E-08  at reduced coord.    0.7000    0.5000    0.5469
   Integrated=    2.6000E+01
 ETOT  4  -92.373791467268    -1.930E-02 1.244E-02 3.263E+02
 scprqt: <Vxc>= -1.4352064E-01 hartree
 
 Pulay update with  3 previous iterations:
 mixing of old trial potential: alpha(m:m-4)=  0.465      0.197      0.701E-01  0.269
{SCF_istep: 4 , Vnl|psi>: 700 , wall_time: '  2.27 [s] '} <<< TIME
 
 ITER STEP NUMBER     5
 Total charge density [el/Bohr^3]
)     Maximum=    9.3899E-01  at reduced coord.    0.2333    0.7333    0.0000
)     Minimum=    0.0000E+00  at reduced coord.    0.5000    0.5000    0.3698
   Integrated=    2.6000E+01
 ETOT  5  -92.378050848937    -4.259E-03 1.247E-03 2.100E+02
 scprqt: <Vxc>= -1.4300464E-01 hartree
 
 Pulay update with  4 previous iterations:
 mixing of old trial potential: alpha(m:m-4)=  0.949     -0.191      0.521E-01  0.349E-01  0.155
{SCF_istep: 5 , Vnl|psi>: 698 , wall_time: '  2.37 [s] '} <<< TIME
 
 ITER STEP NUMBER     6
 Total charge density [el/Bohr^3]
)     Maximum=    9.3747E-01  at reduced coord.    0.2333    0.7333    0.0000
)     Minimum=    0.0000E+00  at reduced coord.    0.5000    0.0000    0.3698
   Integrated=    2.6000E+01
 ETOT  6  -92.380252303235    -2.201E-03 2.709E-03 1.383E+02
 scprqt: <Vxc>= -1.4302182E-01 hartree
 
 Pulay update with  5 previous iterations:
 mixing of old trial potential: alpha(m:m-4)=   1.16      0.204     -0.353     -0.567E-01  0.457E-02
{SCF_istep: 6 , Vnl|psi>: 700 , wall_time: '  2.48 [s] '} <<< TIME
 
 ITER STEP NUMBER     7
 Total charge density [el/Bohr^3]
)     Maximum=    9.3597E-01  at reduced coord.    0.2333    0.7333    0.0000
)     Minimum=    0.0000E+00  at reduced coord.    0.5000    0.0000    0.3698
   Integrated=    2.6000E+01
 ETOT  7  -92.381829496507    -1.577E-03 6.670E-04 7.352E+01
 scprqt: <Vxc>= -1.4320658E-01 hartree
 
 Pulay update with  6 previous iterations:
 mixing of old trial potential: alpha(m:m-4)=  0.595      0.562      0.178     -0.266     -0.741E-01
{SCF_istep: 7 , Vnl|psi>: 700 , wall_time: '  2.45 [s] '} <<< TIME
 
 ITER STEP NUMBER     8
 Total charge density [el/Bohr^3]
)     Maximum=    9.3509E-01  at reduced coord.    0.2333    0.5000    0.0000
)     Minimum=    0.0000E+00  at reduced coord.    0.5000    0.0000    0.3698
   Integrated=    2.6000E+01
 ETOT  8  -92.382236444238    -4.069E-04 1.220E-03 5.173E+01
 scprqt: <Vxc>= -1.4330431E-01 hartree
 
 Pulay update with  7 previous iterations:
 mixing of old trial potential: alpha(m:m-4)=  0.456      0.300      0.323      0.184     -0.192
{SCF_istep: 8 , Vnl|psi>: 699 , wall_time: '  2.30 [s] '} <<< TIME
 
 ITER STEP NUMBER     9
 Total charge density [el/Bohr^3]
)     Maximum=    9.3481E-01  at reduced coord.    0.2333    0.7333    0.0000
)     Minimum=    0.0000E+00  at reduced coord.    0.5000    0.0000    0.3698
   Integrated=    2.6000E+01
 ETOT  9  -92.382332758135    -9.631E-05 6.714E-04 4.470E+01
 scprqt: <Vxc>= -1.4334383E-01 hartree
 
 Pulay update with  7 previous iterations:
 mixing of old trial potential: alpha(m:m-4)=  0.375      0.232      0.203      0.240      0.169
{SCF_istep: 9 , Vnl|psi>: 685 , wall_time: '  2.33 [s] '} <<< TIME
 
 ITER STEP NUMBER    10
 Total charge density [el/Bohr^3]
)     Maximum=    9.3465E-01  at reduced coord.    0.2333    0.7333    0.0000
)     Minimum=    0.0000E+00  at reduced coord.    0.5000    0.0000    0.3698
   Integrated=    2.6000E+01
 ETOT 10  -92.382374867012    -4.211E-05 7.851E-04 4.109E+01
 scprqt: <Vxc>= -1.4336942E-01 hartree
 
 Pulay update with  7 previous iterations:
 mixing of old trial potential: alpha(m:m-4)=  0.467      0.293      0.487E-01  0.116      0.125
{SCF_istep: 10 , Vnl|psi>: 693 , wall_time: '  2.13 [s] '} <<< TIME
 
 ITER STEP NUMBER    11
 Total charge density [el/Bohr^3]
)     Maximum=    9.3384E-01  at reduced coord.    0.2333    0.7333    0.0000
)     Minimum=    0.0000E+00  at reduced coord.    0.5000    0.0000    0.3698
   Integrated=    2.6000E+01
 ETOT 11  -92.382477918982    -1.031E-04 5.840E-04 3.186E+01
 scprqt: <Vxc>= -1.4343618E-01 hartree
 
 Pulay update with  7 previous iterations:
 mixing of old trial potential: alpha(m:m-4)=  0.621      0.362      0.146      0.231E-01 -0.653E-01
{SCF_istep: 11 , Vnl|psi>: 679 , wall_time: '  2.06 [s] '} <<< TIME
 
 ITER STEP NUMBER    12
 Total charge density [el/Bohr^3]
)     Maximum=    9.3367E-01  at reduced coord.    0.5000    0.7333    0.0000
)     Minimum=    0.0000E+00  at reduced coord.    0.1000    0.2333    0.3698
   Integrated=    2.6000E+01
 ETOT 12  -92.382500517619    -2.260E-05 7.834E-04 2.726E+01
 scprqt: <Vxc>= -1.4349822E-01 hartree
 
 Pulay update with  7 previous iterations:
 mixing of old trial potential: alpha(m:m-4)=  0.442      0.396      0.114      0.182      0.172E-02
{SCF_istep: 12 , Vnl|psi>: 700 , wall_time: '  2.14 [s] '} <<< TIME
 
 ITER STEP NUMBER    13
 Total charge density [el/Bohr^3]
)     Maximum=    9.3408E-01  at reduced coord.    0.5000    0.7333    0.0000
)     Minimum=    0.0000E+00  at reduced coord.    0.1000    0.2333    0.3698
   Integrated=    2.6000E+01
 ETOT 13  -92.382487654863     1.286E-05 5.466E-04 2.768E+01
 scprqt: <Vxc>= -1.4351148E-01 hartree
 
 Pulay update with  7 previous iterations:
 mixing of old trial potential: alpha(m:m-4)=  0.760     -0.222E-01  0.116      0.284      0.581E-01
{SCF_istep: 13 , Vnl|psi>: 679 , wall_time: '  2.10 [s] '} <<< TIME
 
 ITER STEP NUMBER    14
 Total charge density [el/Bohr^3]
)     Maximum=    9.3398E-01  at reduced coord.    0.5000    0.7667    0.0000
)     Minimum=    0.0000E+00  at reduced coord.    0.0000    0.0000    0.3750
   Integrated=    2.6000E+01
 ETOT 14  -92.382507802115    -2.015E-05 8.075E-04 2.421E+01
 scprqt: <Vxc>= -1.4355728E-01 hartree
 
 Pulay update with  7 previous iterations:
 mixing of old trial potential: alpha(m:m-4)=  0.448      0.516     -0.139      0.993E-01  0.228
{SCF_istep: 14 , Vnl|psi>: 685 , wall_time: '  2.13 [s] '} <<< TIME
 
 ITER STEP NUMBER    15
 Total charge density [el/Bohr^3]
)     Maximum=    9.3384E-01  at reduced coord.    0.5000    0.7667    0.0000
)     Minimum=    0.0000E+00  at reduced coord.    0.0000    0.0000    0.3750
   Integrated=    2.6000E+01
 ETOT 15  -92.382520476797    -1.267E-05 6.761E-04 2.197E+01
 scprqt: <Vxc>= -1.4357929E-01 hartree
 
 Pulay update with  7 previous iterations:
 mixing of old trial potential: alpha(m:m-4)=   1.17     -0.215      0.626E-01 -0.136     -0.208E-01
{SCF_istep: 15 , Vnl|psi>: 677 , wall_time: '  2.10 [s] '} <<< TIME
 
 ITER STEP NUMBER    16
 Total charge density [el/Bohr^3]
)     Maximum=    9.3382E-01  at reduced coord.    0.5000    0.7333    0.0000
)     Minimum=    0.0000E+00  at reduced coord.    0.0000    0.0000    0.3750
   Integrated=    2.6000E+01
 ETOT 16  -92.382525363468    -4.887E-06 7.051E-04 2.011E+01
 scprqt: <Vxc>= -1.4360377E-01 hartree
 
 Pulay update with  7 previous iterations:
 mixing of old trial potential: alpha(m:m-4)=  0.756      0.791     -0.114      0.228E-01 -0.339
{SCF_istep: 16 , Vnl|psi>: 700 , wall_time: '  2.10 [s] '} <<< TIME
 
 ITER STEP NUMBER    17
 Total charge density [el/Bohr^3]
)     Maximum=    9.3380E-01  at reduced coord.    0.5000    0.7667    0.0000
)     Minimum=    0.0000E+00  at reduced coord.    0.0000    0.0000    0.3750
   Integrated=    2.6000E+01
 ETOT 17  -92.382537393546    -1.203E-05 7.198E-04 1.631E+01
 scprqt: <Vxc>= -1.4366436E-01 hartree
 
 Pulay update with  7 previous iterations:
 mixing of old trial potential: alpha(m:m-4)=  0.506      0.280      0.462     -0.353E-01  0.115
{SCF_istep: 17 , Vnl|psi>: 686 , wall_time: '  2.09 [s] '} <<< TIME
 
 ITER STEP NUMBER    18
 Total charge density [el/Bohr^3]
)     Maximum=    9.3377E-01  at reduced coord.    0.2333    0.5000    0.0000
)     Minimum=    0.0000E+00  at reduced coord.    0.0000    0.0000    0.3750
   Integrated=    2.6000E+01
 ETOT 18  -92.382539311417    -1.918E-06 5.747E-04 1.550E+01
 scprqt: <Vxc>= -1.4367449E-01 hartree
 
 Pulay update with  7 previous iterations:
 mixing of old trial potential: alpha(m:m-4)=   1.81     -0.920      0.128      0.114     -0.176
{SCF_istep: 18 , Vnl|psi>: 692 , wall_time: '  2.12 [s] '} <<< TIME
 
 ITER STEP NUMBER    19
 Total charge density [el/Bohr^3]
)     Maximum=    9.3386E-01  at reduced coord.    0.2333    0.5000    0.0000
)     Minimum=    0.0000E+00  at reduced coord.    0.0000    0.0000    0.3750
   Integrated=    2.6000E+01
 ETOT 19  -92.382541201477    -1.890E-06 6.579E-04 1.372E+01
 scprqt: <Vxc>= -1.4370468E-01 hartree
 
 Pulay update with  7 previous iterations:
 mixing of old trial potential: alpha(m:m-4)=  0.746       1.22      -1.09      0.878E-01  0.879E-01
{SCF_istep: 19 , Vnl|psi>: 677 , wall_time: '  2.10 [s] '} <<< TIME
 
 ITER STEP NUMBER    20
 Total charge density [el/Bohr^3]
)     Maximum=    9.3391E-01  at reduced coord.    0.5000    0.7333    0.0000
)     Minimum=    0.0000E+00  at reduced coord.    0.0000    0.0000    0.3750
   Integrated=    2.6000E+01
 ETOT 20  -92.382539191783     2.010E-06 4.839E-04 1.342E+01
 scprqt: <Vxc>= -1.4370507E-01 hartree
 
 Pulay update with  7 previous iterations:
 mixing of old trial potential: alpha(m:m-4)=   1.79     -0.682      0.636     -0.369     -0.112
 
 -------------------------------------------------------------------------------------------------
 Ekinetic   = :     2.995904E+01 Ha ,    8.152270E+02 eV
 Evext_l    = :    -6.051751E+02 Ha ,   -1.646765E+04 eV
 Evext_nl   = :     1.160907E+01 Ha ,    3.158989E+02 eV
 Epsp_core  = :     7.581990E-01 Ha ,    2.063164E+01 eV
 Ehartree   = :     2.817034E+02 Ha ,    7.665539E+03 eV
 Exc_ks     = :    -1.660410E+01 Ha ,   -4.518206E+02 eV
 Enn        = :     2.053669E+02 Ha ,    5.588318E+03 eV
 -------------------------------------------------------------------------------------------------
 Etot       = :    -9.238254E+01 Ha ,   -2.513857E+03 eV
 -------------------------------------------------------------------------------------------------
 
 Cartesian components of stress tensor (hartree/bohr^3)
  sigma(1 1)=  9.25952815E-06  sigma(3 2)=  1.74481466E-09
  sigma(2 2)=  9.25313830E-06  sigma(3 1)= -3.40403419E-10
  sigma(3 3)=  3.71807692E-05  sigma(2 1)= -1.94964128E-09
 

--- !ScfConvergenceWarning
message: |
    nstep 20 was not enough SCF cycles to converge.
...
 
 scprqt:  WARNING -
  nstep=   20 was not enough SCF cycles to converge;
  maximum energy difference=  2.010E-06 exceeds toldfe=  1.000E-07
 
 
 fftdatar_write: About to write data to: mos2_1o_DS1_DEN with iomode: IO_MODE_FORTRAN
 IO operation , wall:  0.12 [s] , cpu:  0.01 [s] <<< TIME
- Creating HDf5 file with MPI-IO support: mos2_1o_DS1_GSR.nc
 Integrated electronic density in atomic spheres:
 ------------------------------------------------
 Atom  Sphere_radius  Integrated_density
    1        2.00000         10.53788721
    2        2.00000          3.92033587
    3        2.00000          3.92035778
================================================================================
 
 ----iterations are completed or convergence reached----
 
 
 === Gap info ===
  >>>> For spin  1
   Minimum direct gap =   2.6661 [eV], located at k-point      :   0.2500  0.2500  0.5000
   Fundamental gap    =   2.2328 [eV], Top of valence bands at :   0.0000  0.0000  0.5000
                                       Bottom of conduction at :   0.2500  0.0000  0.5000
 Mean square residual over all n,k,spin=   80.752E-07; max=  48.387E-05
   0.0000  0.0000  0.5000    1  6.65536E-06 kpt; spin; max resid(k); each band:
  5.65E-11 8.80E-11 1.01E-11 7.63E-12 2.03E-10 1.93E-10 5.56E-10 1.63E-10
  1.58E-10 1.52E-10 9.43E-10 8.02E-10 5.51E-10 6.66E-06
   0.2500  0.0000  0.5000    1  3.88218E-07 kpt; spin; max resid(k); each band:
  5.11E-11 6.06E-11 7.77E-11 1.53E-11 2.23E-10 2.17E-10 5.64E-10 4.32E-10
  5.87E-10 1.65E-10 5.93E-10 2.18E-10 4.20E-10 3.88E-07
   0.5000  0.0000  0.5000    1  6.08722E-05 kpt; spin; max resid(k); each band:
  3.30E-11 1.14E-10 5.76E-11 3.60E-11 2.70E-10 2.23E-10 2.64E-10 1.95E-10
  4.64E-10 7.51E-11 6.16E-10 2.28E-10 6.19E-10 6.09E-05
   0.0000  0.2500  0.5000    1  2.14436E-04 kpt; spin; max resid(k); each band:
  5.11E-11 5.43E-11 7.39E-11 2.06E-11 2.20E-10 2.17E-10 5.74E-10 4.72E-10
  5.85E-10 1.69E-10 7.78E-10 2.13E-10 4.91E-10 2.14E-04
   0.2500  0.2500  0.5000    1  3.32019E-08 kpt; spin; max resid(k); each band:
  3.77E-11 8.77E-11 4.45E-11 6.57E-11 2.61E-10 2.21E-10 3.68E-10 1.81E-10
  7.45E-10 4.15E-10 4.07E-10 7.03E-10 4.25E-10 3.32E-08
   0.5000  0.2500  0.5000    1  1.48707E-06 kpt; spin; max resid(k); each band:
  3.94E-11 9.15E-11 4.23E-11 6.63E-11 2.60E-10 2.23E-10 3.69E-10 1.77E-10
  7.42E-10 4.19E-10 4.10E-10 7.00E-10 4.15E-10 1.49E-06
  -0.2500  0.2500  0.5000    1  1.61541E-06 kpt; spin; max resid(k); each band:
  5.12E-11 6.17E-11 7.35E-11 1.95E-11 2.20E-10 2.19E-10 5.54E-10 4.41E-10
  5.91E-10 1.15E-10 6.05E-10 2.11E-10 4.18E-10 1.62E-06
   0.0000  0.5000  0.5000    1  4.83869E-04 kpt; spin; max resid(k); each band:
  3.23E-11 1.10E-10 5.77E-11 3.87E-11 2.65E-10 2.24E-10 3.06E-10 1.92E-10
  4.64E-10 1.27E-10 6.13E-10 3.76E-10 5.69E-10 4.84E-04
   0.2500  0.5000  0.5000    1  3.30537E-07 kpt; spin; max resid(k); each band:
  3.87E-11 8.97E-11 4.53E-11 6.68E-11 2.58E-10 2.24E-10 3.70E-10 1.75E-10
  7.35E-10 4.20E-10 4.16E-10 7.01E-10 4.21E-10 3.31E-07
   0.5000  0.5000  0.5000    1  3.60801E-04 kpt; spin; max resid(k); each band:
  3.35E-11 1.13E-10 5.79E-11 3.66E-11 2.61E-10 2.28E-10 2.86E-10 1.91E-10
  4.56E-10 1.18E-10 6.17E-10 3.33E-10 5.85E-10 3.61E-04
 
   outwf: writing wavefunctions to: mos2_1o_DS1_WFK with iomode: IO_MODE_FORTRAN_MASTER
 WFK output , wall:  0.11 [s] , cpu:  0.03 [s] <<< TIME
 prteigrs : about to open file mos2_1o_DS1_EIG
 Fermi (or HOMO) energy (hartree) =  -0.07456   Average Vxc (hartree)=  -0.14371
 Eigenvalues (hartree) for nkpt=  10  k points:
 kpt#   1, nband= 14, wtk=  0.06250, kpt=  0.0000  0.0000  0.5000 (reduced coord)
  -2.30687   -1.35635   -1.34777   -1.34777   -0.58815   -0.54247   -0.27634   -0.16105
  -0.16105   -0.13906   -0.12080   -0.12080   -0.07456    0.03327
 kpt#   2, nband= 14, wtk=  0.12500, kpt=  0.2500  0.0000  0.5000 (reduced coord)
  -2.30612   -1.35509   -1.35492   -1.34944   -0.55707   -0.52897   -0.25195   -0.20809
  -0.20150   -0.15760   -0.13051   -0.12093   -0.09816    0.00749
 kpt#   3, nband= 14, wtk=  0.06250, kpt=  0.5000  0.0000  0.5000 (reduced coord)
  -2.30537   -1.36220   -1.35346   -1.35110   -0.51709   -0.51245   -0.28269   -0.24786
  -0.21894   -0.18306   -0.14213   -0.10205   -0.09361    0.01663
 kpt#   4, nband= 14, wtk=  0.12500, kpt=  0.0000  0.2500  0.5000 (reduced coord)
  -2.30612   -1.35509   -1.35492   -1.34944   -0.55707   -0.52897   -0.25195   -0.20809
  -0.20150   -0.15760   -0.13051   -0.12093   -0.09816    0.00832
 kpt#   5, nband= 14, wtk=  0.12500, kpt=  0.2500  0.2500  0.5000 (reduced coord)
  -2.30537   -1.35953   -1.35386   -1.35345   -0.51823   -0.51168   -0.25743   -0.25015
  -0.20150   -0.18999   -0.17635   -0.13223   -0.08749    0.01049
 kpt#   6, nband= 14, wtk=  0.12500, kpt=  0.5000  0.2500  0.5000 (reduced coord)
  -2.30537   -1.35953   -1.35386   -1.35345   -0.51823   -0.51168   -0.25743   -0.25015
  -0.20150   -0.18999   -0.17635   -0.13223   -0.08749    0.01049
 kpt#   7, nband= 14, wtk=  0.12500, kpt= -0.2500  0.2500  0.5000 (reduced coord)
  -2.30612   -1.35509   -1.35492   -1.34944   -0.55707   -0.52897   -0.25195   -0.20809
  -0.20150   -0.15760   -0.13051   -0.12093   -0.09816    0.00750
 kpt#   8, nband= 14, wtk=  0.06250, kpt=  0.0000  0.5000  0.5000 (reduced coord)
  -2.30537   -1.36220   -1.35346   -1.35110   -0.51709   -0.51245   -0.28269   -0.24786
  -0.21894   -0.18306   -0.14213   -0.10205   -0.09361    0.02108
 kpt#   9, nband= 14, wtk=  0.12500, kpt=  0.2500  0.5000  0.5000 (reduced coord)
  -2.30537   -1.35953   -1.35386   -1.35345   -0.51823   -0.51168   -0.25743   -0.25015
  -0.20150   -0.18999   -0.17635   -0.13223   -0.08749    0.01049
 kpt#  10, nband= 14, wtk=  0.06250, kpt=  0.5000  0.5000  0.5000 (reduced coord)
  -2.30537   -1.36220   -1.35346   -1.35110   -0.51709   -0.51245   -0.28269   -0.24786
  -0.21894   -0.18306   -0.14213   -0.10205   -0.09361    0.01831
 Total charge density [el/Bohr^3]
)     Maximum=    9.3391E-01  at reduced coord.    0.5000    0.7333    0.0000
)Next maximum=    9.3391E-01  at reduced coord.    0.5000    0.7667    0.0000
)     Minimum=    0.0000E+00  at reduced coord.    0.0000    0.0000    0.3750
)Next minimum=    0.0000E+00  at reduced coord.    0.4667    0.0333    0.3750
   Integrated=    2.6000E+01
 
 Cartesian components of stress tensor (hartree/bohr^3)
  sigma(1 1)=  9.25952815E-06  sigma(3 2)=  1.74481466E-09
  sigma(2 2)=  9.25313830E-06  sigma(3 1)= -3.40403419E-10
  sigma(3 3)=  3.71807692E-05  sigma(2 1)= -1.94964128E-09
 
-Cartesian components of stress tensor (GPa)         [Pressure= -5.4619E-01 GPa]
- sigma(1 1)=  2.72424678E-01  sigma(3 2)=  5.13342111E-05
- sigma(2 2)=  2.72236682E-01  sigma(3 1)= -1.00150127E-05
- sigma(3 3)=  1.09389581E+00  sigma(2 1)= -5.73604171E-05
 dataset: 1 , wall: 01:00 [minutes] , cpu: 54.86 [s] <<< TIME
 
================================================================================
== DATASET  2 ==================================================================
-   mpi_nproc: 1, omp_nthreads: -1 (-1 if OMP is not activated)
 
 
--- !COMMENT
src_file: m_xgScalapack.F90
src_line: 235
message: |
    xgScalapack in auto mode
...
 
 mkfilename : getden/=0, take file _DEN from output of DATASET   1.
 
 
 getdim_nloc: deduce lmnmax  =  18, lnmax  =   6,
                      lmnmaxso=  18, lnmaxso=   6.
 Exchange-correlation functional for the present dataset will be:
  GGA: Perdew-Burke-Ernzerhof functional - ixc=11
 Citation for XC functional:
  J.P.Perdew, K.Burke, M.Ernzerhof, PRL 77, 3865 (1996)
 
 Unit cell volume ucvol=  1.1673104E+03 bohr^3
 Angles (23,13,12)=  9.00000000E+01  9.00000000E+01  1.20000000E+02 degrees
 
 getcut: wavevector=  0.0000  0.0000  0.0000  ngfft=  30  30 192
         ecut(hartree)=     30.000   => boxcut(ratio)=   2.03894
 wfconv:     8 bands initialized randomly with npw=  4622, for ikpt=     1
 wfconv:     8 bands initialized randomly with npw=  9255, for ikpt=     2
 wfconv:     8 bands initialized randomly with npw=  9231, for ikpt=     3
 wfconv:     8 bands initialized randomly with npw=  9219, for ikpt=     4
 wfconv:     8 bands initialized randomly with npw=  9211, for ikpt=     5
 wfconv:     8 bands initialized randomly with npw=  9189, for ikpt=     6
 wfconv:     8 bands initialized randomly with npw=  9171, for ikpt=     7
 wfconv:     8 bands initialized randomly with npw=  9165, for ikpt=     8
 wfconv:     8 bands initialized randomly with npw=  9177, for ikpt=     9
 wfconv:     8 bands initialized randomly with npw=  9189, for ikpt=    10
 wfconv:     8 bands initialized randomly with npw=  9179, for ikpt=    11
 wfconv:     8 bands initialized randomly with npw=  9163, for ikpt=    12
 wfconv:     8 bands initialized randomly with npw=  9151, for ikpt=    13
 wfconv:     8 bands initialized randomly with npw=  9160, for ikpt=    14
 wfconv:     8 bands initialized randomly with npw=  9156, for ikpt=    15
 wfconv:     8 bands initialized randomly with npw=  9136, for ikpt=    16
 wfconv:     8 bands initialized randomly with npw=  9126, for ikpt=    17
 wfconv:     8 bands initialized randomly with npw=  4550, for ikpt=    18
 wfconv:     8 bands initialized randomly with npw=  9146, for ikpt=    19
 wfconv:     8 bands initialized randomly with npw=  9152, for ikpt=    20
 wfconv:     8 bands initialized randomly with npw=  9160, for ikpt=    21
 wfconv:     8 bands initialized randomly with npw=  9158, for ikpt=    22
 wfconv:     8 bands initialized randomly with npw=  9120, for ikpt=    23
 wfconv:     8 bands initialized randomly with npw=  9128, for ikpt=    24
 wfconv:     8 bands initialized randomly with npw=  9112, for ikpt=    25
 wfconv:     8 bands initialized randomly with npw=  9114, for ikpt=    26
 wfconv:     8 bands initialized randomly with npw=  9122, for ikpt=    27
 wfconv:     8 bands initialized randomly with npw=  9144, for ikpt=    28
 wfconv:     8 bands initialized randomly with npw=  9116, for ikpt=    29
 wfconv:     8 bands initialized randomly with npw=  9124, for ikpt=    30
 wfconv:     8 bands initialized randomly with npw=  9123, for ikpt=    31
 wfconv:     8 bands initialized randomly with npw=  9132, for ikpt=    32
 wfconv:     8 bands initialized randomly with npw=  9141, for ikpt=    33
 wfconv:     8 bands initialized randomly with npw=  9165, for ikpt=    34
 wfconv:     8 bands initialized randomly with npw=  9154, for ikpt=    35
 wfconv:     8 bands initialized randomly with npw=  9153, for ikpt=    36
 wfconv:     8 bands initialized randomly with npw=  9142, for ikpt=    37
 wfconv:     8 bands initialized randomly with npw=  9138, for ikpt=    38
 wfconv:     8 bands initialized randomly with npw=  9155, for ikpt=    39
 wfconv:     8 bands initialized randomly with npw=  9151, for ikpt=    40
 wfconv:     8 bands initialized randomly with npw=  9147, for ikpt=    41
 wfconv:     8 bands initialized randomly with npw=  9148, for ikpt=    42
 wfconv:     8 bands initialized randomly with npw=  9146, for ikpt=    43
 wfconv:     8 bands initialized randomly with npw=  9140, for ikpt=    44
 wfconv:     8 bands initialized randomly with npw=  9133, for ikpt=    45
 wfconv:     8 bands initialized randomly with npw=  9115, for ikpt=    46
 wfconv:     8 bands initialized randomly with npw=  9118, for ikpt=    47
 wfconv:     8 bands initialized randomly with npw=  9102, for ikpt=    48
 wfconv:     8 bands initialized randomly with npw=  9113, for ikpt=    49
 wfconv:     8 bands initialized randomly with npw=  9120, for ikpt=    50
 About to read data(r) from: mos2_1o_DS1_DEN
 
================================================================================
 
          - hdr_check: checking restart file header for consistency -
 
 
          current calculation                           restart file
          -------------------                           ------------
 
  calculation expects a density             |  input file contains a density
. ABINIT  code version 9.10.3               |  ABINIT  code version 9.10.3
. date 20250507 bantot      544 natom    3  |  date 20250507 bantot      140 natom    3
  nkpt      68 nsym  1 ngfft  30,  30, 192  |  nkpt      10 nsym  1 ngfft  30,  30, 192
  ntypat  2 ecut_eff  30.0000000            |  ntypat  2 ecut_eff  30.0000000
  usepaw  0                                 |  usepaw  0
  usewvl  0                                 |  usewvl  0
  rprimd:                                   |  rprimd:
     2.9859563  -5.1718280   0.0000000      |     2.9859563  -5.1718280   0.0000000
     2.9859563   5.1718280   0.0000000      |     2.9859563   5.1718280   0.0000000
     0.0000000   0.0000000  37.7945227      |     0.0000000   0.0000000  37.7945227
  symafm:                                   |  symafm:
    1                                       |    1
  symrel:                                   |  symrel:
    1  0  0  0  1  0  0  0  1               |    1  0  0  0  1  0  0  0  1
  typat:                                    |  typat:
    1  2  2                                 |    1  2  2
  so_psp  :                                 |  so_psp  :
    1  1                                    |    1  1
 
--- !COMMENT
src_file: m_hdr.F90
src_line: 4232
message: |
    input kptrlatt = 0 0 0 0 0 0 0 0 0  /= disk file kptrlatt = 4 0 0 0 4 0 0 0 1
...
 
 
--- !COMMENT
src_file: m_hdr.F90
src_line: 4235
message: |
    input kptopt = -3  /= disk file kptopt = 1
...
 
 
--- !WARNING
src_file: m_hdr.F90
src_line: 4256
message: |
    input ival=0 not equal disk file ival=13
...
 
  tnons:                                    |  tnons:
     0.0000000   0.0000000   0.0000000      |     0.0000000   0.0000000   0.0000000
   znucl:                                   |   znucl:
   42.00 16.00                              |       42.00 16.00
  pseudopotential atom type  1:             |  pseudopotential atom type  1:
  pspso   0 pspxc  11                       |  pspso   0 pspxc  11
  pspdat   170510 pspcod    8 zion  14.0    |  pspdat   170510 pspcod    8 zion  14.0
  pseudopotential atom type  2:             |  pseudopotential atom type  2:
  pspso   0 pspxc  11                       |  pspso   0 pspxc  11
  pspdat   220131 pspcod    8 zion   6.0    |  pspdat   220131 pspcod    8 zion   6.0
  xred:                                     |  xred:
     0.3333333   0.6666667   0.0000000      |     0.3333333   0.6666667   0.0000000
     0.6666667   0.3333333  -0.0792500      |     0.6666667   0.3333333  -0.0792500
     0.6666667   0.3333333   0.0792500      |     0.6666667   0.3333333   0.0792500
 hdr_check:  Density/Potential file is OK for restart of calculation
================================================================================
 read_rhor , wall:  0.01 [s] , cpu:  0.00 [s] <<< TIME
 
================================================================================
 
 getcut: wavevector=  0.0000  0.0000  0.0000  ngfft=  30  30 192
         ecut(hartree)=     30.000   => boxcut(ratio)=   2.03894
 Max number of non-self-consistent loops: 20
 k-point: [ 1 / 68 ], spin: 1
   Max resid = 2.53525E+00  (exclude nbdbuf bands). One NSCF iteration cpu-time:  0.09 [s] , wall-time:  0.43 [s]
   Max resid = 1.62590E-01  (exclude nbdbuf bands). One NSCF iteration cpu-time:  0.09 [s] , wall-time:  0.09 [s]
   Max resid = 7.54957E-04  (exclude nbdbuf bands). One NSCF iteration cpu-time:  0.08 [s] , wall-time:  0.08 [s]
   Printing residuals every mod(20) iterations...
   NSCF loop completed after 11 iterations
 
 -------------------------------------------------------------------------------------------------
 Ekinetic   = :     0.000000E+00 Ha ,    0.000000E+00 eV
 Evext_l    = :     0.000000E+00 Ha ,    0.000000E+00 eV
 Evext_nl   = :     0.000000E+00 Ha ,    0.000000E+00 eV
 Epsp_core  = :     7.581990E-01 Ha ,    2.063164E+01 eV
 Ehartree   = :     0.000000E+00 Ha ,    0.000000E+00 eV
 Exc_ks     = :    -1.660410E+01 Ha ,   -4.518206E+02 eV
 Enn        = :     2.053669E+02 Ha ,    5.588318E+03 eV
 -------------------------------------------------------------------------------------------------
 Etot       = :     1.895210E+02 Ha ,    5.157129E+03 eV
 -------------------------------------------------------------------------------------------------
 
 fftdatar_write: About to write data to: mos2_1o_DS2_DEN with iomode: IO_MODE_FORTRAN
 IO operation , wall:  0.01 [s] , cpu:  0.00 [s] <<< TIME
- Creating HDf5 file with MPI-IO support: mos2_1o_DS2_GSR.nc
 Integrated electronic density in atomic spheres:
 ------------------------------------------------
 Atom  Sphere_radius  Integrated_density
    1        2.00000         10.53788721
    2        2.00000          3.92033587
    3        2.00000          3.92035778
================================================================================
 
 ----iterations are completed or convergence reached----
 
 
 === Gap info ===
Not enough states to calculate the band gap.
 Mean square residual over all n,k,spin=   60.454E-14; max=  99.929E-14
   0.0000  0.0000  0.0000    1  6.22511E-05 kpt; spin; max resid(k); each band:
  7.75E-13 3.88E-13 2.78E-13 5.60E-13 8.59E-13 5.63E-13 3.75E-10 6.23E-05
   0.0294  0.0000  0.0000    1  3.87257E-05 kpt; spin; max resid(k); each band:
  5.75E-13 7.74E-13 8.77E-13 4.83E-13 9.27E-13 7.38E-13 5.63E-12 3.87E-05
   0.0588  0.0000  0.0000    1  8.25941E-05 kpt; spin; max resid(k); each band:
  8.21E-13 4.50E-13 3.37E-13 5.45E-13 7.94E-13 2.94E-13 4.13E-11 8.26E-05
   0.0882  0.0000  0.0000    1  1.17922E-04 kpt; spin; max resid(k); each band:
  6.86E-13 9.44E-13 8.09E-13 8.09E-13 9.74E-13 7.41E-13 1.63E-11 1.18E-04
   0.1176  0.0000  0.0000    1  1.39421E-04 kpt; spin; max resid(k); each band:
  9.20E-13 8.54E-13 4.93E-13 9.61E-13 5.39E-13 5.35E-13 1.51E-11 1.39E-04
   0.1471  0.0000  0.0000    1  7.08732E-05 kpt; spin; max resid(k); each band:
  6.10E-13 5.71E-13 8.09E-13 4.98E-13 6.01E-13 8.12E-13 2.10E-12 7.09E-05
   0.1765  0.0000  0.0000    1  9.02694E-05 kpt; spin; max resid(k); each band:
  6.63E-13 3.02E-13 5.18E-13 3.03E-13 6.89E-13 2.81E-13 2.00E-10 9.03E-05
   0.2059  0.0000  0.0000    1  2.72530E-05 kpt; spin; max resid(k); each band:
  4.27E-13 5.43E-13 2.86E-13 3.65E-13 8.45E-13 7.44E-13 2.17E-09 2.73E-05
   0.2353  0.0000  0.0000    1  7.46456E-06 kpt; spin; max resid(k); each band:
  7.06E-13 7.25E-13 3.00E-13 4.28E-13 9.40E-13 6.06E-13 2.22E-08 7.46E-06
   0.2647  0.0000  0.0000    1  8.83451E-06 kpt; spin; max resid(k); each band:
  8.08E-13 3.27E-13 6.42E-13 3.84E-13 2.74E-13 6.55E-13 1.92E-08 8.83E-06
   0.2941  0.0000  0.0000    1  2.37891E-05 kpt; spin; max resid(k); each band:
  3.78E-13 4.70E-13 3.92E-13 7.98E-13 9.61E-13 9.13E-13 4.78E-09 2.38E-05
   0.3235  0.0000  0.0000    1  3.49097E-05 kpt; spin; max resid(k); each band:
  6.43E-13 4.44E-13 6.65E-13 7.85E-13 4.75E-13 7.74E-13 2.64E-08 3.49E-05
   0.3529  0.0000  0.0000    1  8.59541E-06 kpt; spin; max resid(k); each band:
  7.16E-13 9.49E-13 9.10E-13 5.54E-13 4.71E-13 9.50E-13 3.28E-09 8.60E-06
   0.3824  0.0000  0.0000    1  1.40164E-06 kpt; spin; max resid(k); each band:
  7.65E-13 7.00E-13 2.70E-13 9.51E-13 4.79E-13 5.23E-13 6.40E-09 1.40E-06
   0.4118  0.0000  0.0000    1  1.26414E-06 kpt; spin; max resid(k); each band:
  6.03E-13 7.95E-13 3.82E-13 4.38E-13 9.45E-13 4.79E-13 1.21E-09 1.26E-06
   0.4412  0.0000  0.0000    1  1.41487E-06 kpt; spin; max resid(k); each band:
  4.17E-13 4.94E-13 5.82E-13 4.43E-13 4.87E-13 5.52E-13 1.14E-08 1.41E-06
   0.4706  0.0000  0.0000    1  2.19680E-07 kpt; spin; max resid(k); each band:
  6.72E-13 4.69E-13 9.15E-13 6.22E-13 4.72E-13 8.69E-13 2.74E-09 2.20E-07
   0.5000  0.0000  0.0000    1  5.65646E-06 kpt; spin; max resid(k); each band:
  6.46E-13 3.84E-13 2.89E-13 2.58E-13 3.47E-13 2.98E-13 6.39E-09 5.66E-06
   0.4833  0.0333  0.0000    1  2.57463E-07 kpt; spin; max resid(k); each band:
  7.50E-13 6.45E-13 3.80E-13 5.60E-13 5.96E-13 2.27E-13 1.46E-09 2.57E-07
   0.4667  0.0667  0.0000    1  1.22794E-06 kpt; spin; max resid(k); each band:
  8.55E-13 4.99E-13 9.47E-13 8.38E-13 5.75E-13 9.69E-13 2.47E-08 1.23E-06
   0.4500  0.1000  0.0000    1  3.23482E-07 kpt; spin; max resid(k); each band:
  7.92E-13 3.13E-13 4.64E-13 6.95E-13 6.67E-13 4.81E-13 3.60E-09 3.23E-07
   0.4333  0.1333  0.0000    1  5.95662E-07 kpt; spin; max resid(k); each band:
  7.34E-13 2.62E-13 6.62E-13 5.06E-13 3.62E-13 4.24E-13 1.77E-08 5.96E-07
   0.4167  0.1667  0.0000    1  3.79778E-08 kpt; spin; max resid(k); each band:
  4.06E-13 4.27E-13 9.15E-13 8.07E-13 6.15E-13 8.65E-13 2.14E-09 3.80E-08
   0.4000  0.2000  0.0000    1  4.92561E-08 kpt; spin; max resid(k); each band:
  9.57E-13 3.08E-13 9.96E-13 7.66E-13 5.40E-13 8.52E-13 4.93E-08 2.66E-08
   0.3833  0.2333  0.0000    1  1.71834E-07 kpt; spin; max resid(k); each band:
  3.25E-13 9.52E-13 3.76E-13 4.26E-13 2.77E-13 3.28E-13 5.14E-08 1.72E-07
   0.3667  0.2667  0.0000    1  3.80343E-08 kpt; spin; max resid(k); each band:
  7.68E-13 3.89E-13 2.72E-13 7.44E-13 8.84E-13 8.35E-13 9.42E-09 3.80E-08
   0.3500  0.3000  0.0000    1  3.42382E-07 kpt; spin; max resid(k); each band:
  4.16E-13 3.88E-13 2.52E-13 5.03E-13 5.29E-13 5.13E-13 5.22E-09 3.42E-07
   0.3333  0.3333  0.0000    1  4.11899E-06 kpt; spin; max resid(k); each band:
  6.55E-13 4.93E-13 2.98E-13 4.33E-13 2.54E-13 5.62E-13 9.47E-09 4.12E-06
   0.3500  0.3500  0.0250    1  1.85347E-06 kpt; spin; max resid(k); each band:
  9.10E-13 7.08E-13 5.32E-13 4.58E-13 2.91E-13 9.88E-13 3.32E-08 1.85E-06
   0.3667  0.3667  0.0500    1  7.35255E-08 kpt; spin; max resid(k); each band:
  6.47E-13 4.03E-13 5.41E-13 2.88E-13 5.42E-13 6.32E-13 6.65E-09 7.35E-08
   0.3833  0.3833  0.0750    1  7.32190E-08 kpt; spin; max resid(k); each band:
  6.68E-13 9.93E-13 3.49E-13 6.70E-13 3.79E-13 5.90E-13 6.03E-08 7.32E-08
   0.4000  0.4000  0.1000    1  1.33414E-07 kpt; spin; max resid(k); each band:
  6.34E-13 1.85E-13 5.52E-13 4.98E-13 9.50E-13 6.29E-13 2.18E-08 1.33E-07
   0.4167  0.4167  0.1250    1  1.79256E-07 kpt; spin; max resid(k); each band:
  6.77E-13 5.69E-13 7.09E-13 8.99E-13 6.53E-13 2.70E-13 6.83E-09 1.79E-07
   0.4333  0.4333  0.1500    1  3.69709E-08 kpt; spin; max resid(k); each band:
  5.87E-13 6.46E-13 8.16E-13 6.99E-13 7.28E-13 6.32E-13 5.20E-09 3.70E-08
   0.4500  0.4500  0.1750    1  1.02035E-06 kpt; spin; max resid(k); each band:
  4.08E-13 4.21E-13 4.98E-13 2.81E-13 7.21E-13 5.21E-13 1.84E-09 1.02E-06
   0.4667  0.4667  0.2000    1  4.15559E-07 kpt; spin; max resid(k); each band:
  8.77E-13 4.24E-13 9.44E-13 6.65E-13 4.52E-13 9.20E-13 8.91E-10 4.16E-07
   0.4833  0.4833  0.2250    1  1.78022E-07 kpt; spin; max resid(k); each band:
  6.90E-13 2.25E-13 3.60E-13 5.62E-13 9.36E-13 9.22E-13 2.89E-09 1.78E-07
   0.5000  0.5000  0.2500    1  2.24949E-06 kpt; spin; max resid(k); each band:
  5.45E-13 4.47E-13 2.68E-13 8.25E-13 8.83E-13 6.41E-13 3.76E-09 2.25E-06
   0.5167  0.5167  0.2750    1  5.63118E-06 kpt; spin; max resid(k); each band:
  7.77E-13 1.73E-13 2.58E-13 4.44E-13 5.86E-13 8.77E-13 9.52E-09 5.63E-06
   0.5333  0.5333  0.3000    1  7.63757E-07 kpt; spin; max resid(k); each band:
  5.68E-13 4.28E-13 3.50E-13 8.46E-13 4.36E-13 5.00E-13 2.03E-09 7.64E-07
   0.5500  0.5500  0.3250    1  8.39490E-07 kpt; spin; max resid(k); each band:
  3.28E-13 2.50E-13 5.12E-13 3.87E-13 5.12E-13 7.73E-13 2.11E-08 8.39E-07
   0.5667  0.5667  0.3500    1  1.30466E-07 kpt; spin; max resid(k); each band:
  4.19E-13 6.38E-13 2.77E-13 6.33E-13 8.25E-13 5.62E-13 3.52E-09 1.30E-07
   0.5833  0.5833  0.3750    1  5.79567E-09 kpt; spin; max resid(k); each band:
  6.66E-13 3.88E-13 2.39E-13 9.30E-13 4.59E-13 6.59E-13 5.80E-09 5.09E-09
   0.6000  0.6000  0.4000    1  6.55882E-08 kpt; spin; max resid(k); each band:
  6.70E-13 2.19E-13 9.60E-13 7.81E-13 8.01E-13 9.91E-13 6.56E-08 4.48E-08
   0.6167  0.6167  0.4250    1  8.92565E-08 kpt; spin; max resid(k); each band:
  6.55E-13 2.65E-13 4.67E-13 2.75E-13 7.24E-13 3.23E-13 8.93E-08 2.30E-08
   0.6333  0.6333  0.4500    1  1.89000E-07 kpt; spin; max resid(k); each band:
  6.18E-13 4.85E-13 8.92E-13 9.14E-13 8.68E-13 5.10E-13 3.14E-09 1.89E-07
   0.6500  0.6500  0.4750    1  1.38157E-06 kpt; spin; max resid(k); each band:
  6.97E-13 3.30E-13 9.86E-13 8.64E-13 7.21E-13 8.47E-13 9.13E-09 1.38E-06
   0.6667  0.6667  0.5000    1  1.35022E-05 kpt; spin; max resid(k); each band:
  3.08E-13 3.39E-13 3.97E-13 7.07E-13 4.87E-13 2.37E-13 2.23E-08 1.35E-05
   0.6833  0.6833  0.5250    1  2.49641E-06 kpt; spin; max resid(k); each band:
  8.08E-13 4.50E-13 5.29E-13 7.95E-13 5.21E-13 7.25E-13 1.54E-08 2.50E-06
   0.7000  0.7000  0.5500    1  6.37837E-08 kpt; spin; max resid(k); each band:
  7.94E-13 3.74E-13 6.45E-13 2.72E-13 9.50E-13 9.71E-13 1.09E-08 6.38E-08
 outwf : prtvol=0 or 1, do not print more k-points.
 
 
   outwf: writing wavefunctions to: mos2_1o_DS2_WFK with iomode: IO_MODE_FORTRAN_MASTER
 WFK output , wall:  0.08 [s] , cpu:  0.08 [s] <<< TIME
 prteigrs : about to open file mos2_1o_DS2_EIG
 Eigenvalues (   eV  ) for nkpt=  68  k points:
 kpt#   1, nband=  8, wtk=  1.00000, kpt=  0.0000  0.0000  0.0000 (reduced coord)
 -62.40345  -36.54396  -36.30522  -36.30521  -15.68552  -14.45293   -7.20050   -4.01853
 kpt#   2, nband=  8, wtk=  1.00000, kpt=  0.0294  0.0000  0.0000 (reduced coord)
 -62.40314  -36.54306  -36.30898  -36.30630  -15.67235  -14.44712   -7.18491   -4.06075
 kpt#   3, nband=  8, wtk=  1.00000, kpt=  0.0588  0.0000  0.0000 (reduced coord)
 -62.40205  -36.54086  -36.31895  -36.30843  -15.63308  -14.42982   -7.13892   -4.13462
 kpt#   4, nband=  8, wtk=  1.00000, kpt=  0.0882  0.0000  0.0000 (reduced coord)
 -62.40035  -36.53753  -36.33532  -36.31220  -15.56846  -14.40137   -7.06478   -3.94287
 kpt#   5, nband=  8, wtk=  1.00000, kpt=  0.1176  0.0000  0.0000 (reduced coord)
 -62.39808  -36.53312  -36.35757  -36.31726  -15.47969  -14.36232   -6.96669   -4.44551
 kpt#   6, nband=  8, wtk=  1.00000, kpt=  0.1471  0.0000  0.0000 (reduced coord)
 -62.39526  -36.52775  -36.38453  -36.32335  -15.36850  -14.31344   -6.85150   -4.67063
 kpt#   7, nband=  8, wtk=  1.00000, kpt=  0.1765  0.0000  0.0000 (reduced coord)
 -62.39203  -36.52146  -36.41570  -36.33035  -15.23715  -14.25578   -6.73010   -4.88300
 kpt#   8, nband=  8, wtk=  1.00000, kpt=  0.2059  0.0000  0.0000 (reduced coord)
 -62.38853  -36.51456  -36.45001  -36.33809  -15.08842  -14.19068   -6.61962   -5.09786
 kpt#   9, nband=  8, wtk=  1.00000, kpt=  0.2353  0.0000  0.0000 (reduced coord)
 -62.38489  -36.50747  -36.48615  -36.34639  -14.92573  -14.11979   -6.54539   -5.27010
 kpt#  10, nband=  8, wtk=  1.00000, kpt=  0.2647  0.0000  0.0000 (reduced coord)
 -62.38118  -36.52252  -36.50037  -36.35488  -14.75311  -14.04506   -6.53616   -5.38025
 kpt#  11, nband=  8, wtk=  1.00000, kpt=  0.2941  0.0000  0.0000 (reduced coord)
 -62.37747  -36.55794  -36.49304  -36.36310  -14.57543  -13.96878   -6.60380   -5.47156
 kpt#  12, nband=  8, wtk=  1.00000, kpt=  0.3235  0.0000  0.0000 (reduced coord)
 -62.37393  -36.59112  -36.48618  -36.37089  -14.39832  -13.89359   -6.72924   -5.71931
 kpt#  13, nband=  8, wtk=  1.00000, kpt=  0.3529  0.0000  0.0000 (reduced coord)
 -62.37072  -36.62125  -36.48001  -36.37799  -14.22844  -13.82242   -6.88112   -5.91996
 kpt#  14, nband=  8, wtk=  1.00000, kpt=  0.3824  0.0000  0.0000 (reduced coord)
 -62.36799  -36.64782  -36.47468  -36.38413  -14.07320  -13.75831   -7.03418   -6.09388
 kpt#  15, nband=  8, wtk=  1.00000, kpt=  0.4118  0.0000  0.0000 (reduced coord)
 -62.36572  -36.66935  -36.47005  -36.38916  -13.94059  -13.70437   -7.17076   -6.23638
 kpt#  16, nband=  8, wtk=  1.00000, kpt=  0.4412  0.0000  0.0000 (reduced coord)
 -62.36400  -36.68505  -36.46649  -36.39273  -13.83853  -13.66343   -7.27806   -6.34252
 kpt#  17, nband=  8, wtk=  1.00000, kpt=  0.4706  0.0000  0.0000 (reduced coord)
 -62.36295  -36.69475  -36.46433  -36.39487  -13.77403  -13.63784   -7.34654   -6.40812
 kpt#  18, nband=  8, wtk=  1.00000, kpt=  0.5000  0.0000  0.0000 (reduced coord)
 -62.36253  -36.69787  -36.46336  -36.39539  -13.75193  -13.62913   -7.37008   -6.42966
 kpt#  19, nband=  8, wtk=  1.00000, kpt=  0.4833  0.0333  0.0000 (reduced coord)
 -62.36255  -36.69670  -36.46361  -36.39875  -13.74624  -13.62545   -7.35364   -6.44009
 kpt#  20, nband=  8, wtk=  1.00000, kpt=  0.4667  0.0667  0.0000 (reduced coord)
 -62.36224  -36.69276  -36.46299  -36.40698  -13.72948  -13.61466   -7.30466   -6.46963
 kpt#  21, nband=  8, wtk=  1.00000, kpt=  0.4500  0.1000  0.0000 (reduced coord)
 -62.36176  -36.68628  -36.46207  -36.42010  -13.70278  -13.59755   -7.22427   -6.51907
 kpt#  22, nband=  8, wtk=  1.00000, kpt=  0.4333  0.1333  0.0000 (reduced coord)
 -62.36109  -36.67723  -36.46077  -36.43745  -13.66795  -13.57538   -7.11432   -6.58652
 kpt#  23, nband=  8, wtk=  1.00000, kpt=  0.4167  0.1667  0.0000 (reduced coord)
 -62.36024  -36.66551  -36.45917  -36.45778  -13.62750  -13.54990   -6.97742   -6.66755
 kpt#  24, nband=  8, wtk=  1.00000, kpt=  0.4000  0.2000  0.0000 (reduced coord)
 -62.35949  -36.65231  -36.48093  -36.45771  -13.58470  -13.52330   -6.81726   -6.75449
 kpt#  25, nband=  8, wtk=  1.00000, kpt=  0.3833  0.2333  0.0000 (reduced coord)
 -62.35870  -36.63746  -36.50466  -36.45616  -13.54335  -13.49808   -6.83783   -6.63892
 kpt#  26, nband=  8, wtk=  1.00000, kpt=  0.3667  0.2667  0.0000 (reduced coord)
 -62.35809  -36.62187  -36.52793  -36.45497  -13.50787  -13.47692   -6.90765   -6.45155
 kpt#  27, nband=  8, wtk=  1.00000, kpt=  0.3500  0.3000  0.0000 (reduced coord)
 -62.35769  -36.60719  -36.54780  -36.45441  -13.48302  -13.46249   -6.95486   -6.27794
 kpt#  28, nband=  8, wtk=  1.00000, kpt=  0.3333  0.3333  0.0000 (reduced coord)
 -62.35759  -36.60000  -36.55745  -36.45416  -13.47370  -13.45721   -6.97196   -6.19166
 kpt#  29, nband=  8, wtk=  1.00000, kpt=  0.3500  0.3500  0.0250 (reduced coord)
 -62.35767  -36.60718  -36.54778  -36.45428  -13.48302  -13.46249   -6.95486   -6.27786
 kpt#  30, nband=  8, wtk=  1.00000, kpt=  0.3667  0.3667  0.0500 (reduced coord)
 -62.35812  -36.62194  -36.52794  -36.45517  -13.50788  -13.47692   -6.90766   -6.45155
 kpt#  31, nband=  8, wtk=  1.00000, kpt=  0.3833  0.3833  0.0750 (reduced coord)
 -62.35873  -36.63754  -36.50472  -36.45632  -13.54336  -13.49808   -6.83784   -6.63893
 kpt#  32, nband=  8, wtk=  1.00000, kpt=  0.4000  0.4000  0.1000 (reduced coord)
 -62.35950  -36.65241  -36.48088  -36.45777  -13.58470  -13.52330   -6.81726   -6.75449
 kpt#  33, nband=  8, wtk=  1.00000, kpt=  0.4167  0.4167  0.1250 (reduced coord)
 -62.36030  -36.66571  -36.45945  -36.45788  -13.62751  -13.54990   -6.97743   -6.66756
 kpt#  34, nband=  8, wtk=  1.00000, kpt=  0.4333  0.4333  0.1500 (reduced coord)
 -62.36111  -36.67715  -36.46098  -36.43751  -13.66795  -13.57538   -7.11431   -6.58656
 kpt#  35, nband=  8, wtk=  1.00000, kpt=  0.4500  0.4500  0.1750 (reduced coord)
 -62.36174  -36.68616  -36.46208  -36.42004  -13.70278  -13.59755   -7.22426   -6.51903
 kpt#  36, nband=  8, wtk=  1.00000, kpt=  0.4667  0.4667  0.2000 (reduced coord)
 -62.36224  -36.69269  -36.46307  -36.40699  -13.72948  -13.61466   -7.30465   -6.46969
 kpt#  37, nband=  8, wtk=  1.00000, kpt=  0.4833  0.4833  0.2250 (reduced coord)
 -62.36254  -36.69670  -36.46361  -36.39863  -13.74624  -13.62545   -7.35363   -6.44010
 kpt#  38, nband=  8, wtk=  1.00000, kpt=  0.5000  0.5000  0.2500 (reduced coord)
 -62.36264  -36.69805  -36.46394  -36.39565  -13.75195  -13.62913   -7.37009   -6.43017
 kpt#  39, nband=  8, wtk=  1.00000, kpt=  0.5167  0.5167  0.2750 (reduced coord)
 -62.36257  -36.69677  -36.46382  -36.39870  -13.74624  -13.62545   -7.35364   -6.43968
 kpt#  40, nband=  8, wtk=  1.00000, kpt=  0.5333  0.5333  0.3000 (reduced coord)
 -62.36224  -36.69265  -36.46305  -36.40699  -13.72948  -13.61466   -7.30465   -6.46966
 kpt#  41, nband=  8, wtk=  1.00000, kpt=  0.5500  0.5500  0.3250 (reduced coord)
 -62.36172  -36.68613  -36.46199  -36.41997  -13.70277  -13.59754   -7.22426   -6.51904
 kpt#  42, nband=  8, wtk=  1.00000, kpt=  0.5667  0.5667  0.3500 (reduced coord)
 -62.36107  -36.67708  -36.46086  -36.43725  -13.66794  -13.57537   -7.11430   -6.58655
 kpt#  43, nband=  8, wtk=  1.00000, kpt=  0.5833  0.5833  0.3750 (reduced coord)
 -62.36031  -36.66583  -36.45938  -36.45794  -13.62751  -13.54990   -6.97745   -6.66757
 kpt#  44, nband=  8, wtk=  1.00000, kpt=  0.6000  0.6000  0.4000 (reduced coord)
 -62.35952  -36.65263  -36.48088  -36.45775  -13.58471  -13.52330   -6.81727   -6.75450
 kpt#  45, nband=  8, wtk=  1.00000, kpt=  0.6167  0.6167  0.4250 (reduced coord)
 -62.35876  -36.63771  -36.50484  -36.45629  -13.54337  -13.49808   -6.83784   -6.63894
 kpt#  46, nband=  8, wtk=  1.00000, kpt=  0.6333  0.6333  0.4500 (reduced coord)
 -62.35810  -36.62191  -36.52791  -36.45502  -13.50787  -13.47692   -6.90765   -6.45155
 kpt#  47, nband=  8, wtk=  1.00000, kpt=  0.6500  0.6500  0.4750 (reduced coord)
 -62.35768  -36.60729  -36.54789  -36.45413  -13.48303  -13.46249   -6.95486   -6.27786
 kpt#  48, nband=  8, wtk=  1.00000, kpt=  0.6667  0.6667  0.5000 (reduced coord)
 -62.35748  -36.59963  -36.55708  -36.45377  -13.47368  -13.45721   -6.97195   -6.19121
 kpt#  49, nband=  8, wtk=  1.00000, kpt=  0.6833  0.6833  0.5250 (reduced coord)
 -62.35769  -36.60623  -36.54856  -36.45420  -13.48446  -13.46302   -6.95332   -6.27299
 kpt#  50, nband=  8, wtk=  1.00000, kpt=  0.7000  0.7000  0.5500 (reduced coord)
 -62.35827  -36.61682  -36.53119  -36.45545  -13.51921  -13.48110   -6.89538   -6.41934
 kpt#  51, nband=  8, wtk=  1.00000, kpt=  0.7167  0.7167  0.5750 (reduced coord)
 -62.35927  -36.62461  -36.51155  -36.45741  -13.58044  -13.51182   -6.79651   -6.54842
 kpt#  52, nband=  8, wtk=  1.00000, kpt=  0.7333  0.7333  0.6000 (reduced coord)
 -62.36073  -36.62779  -36.49132  -36.46026  -13.66887  -13.55473   -6.65701   -6.63687
 kpt#  53, nband=  8, wtk=  1.00000, kpt=  0.7500  0.7500  0.6250 (reduced coord)
 -62.36263  -36.62543  -36.47102  -36.46399  -13.78326  -13.60868   -6.67938   -6.47882
 kpt#  54, nband=  8, wtk=  1.00000, kpt=  0.7667  0.7667  0.6500 (reduced coord)
 -62.36502  -36.61763  -36.46853  -36.45139  -13.92060  -13.67197   -6.67781   -6.26562
 kpt#  55, nband=  8, wtk=  1.00000, kpt=  0.7833  0.7833  0.6750 (reduced coord)
 -62.36782  -36.60419  -36.47403  -36.43243  -14.07646  -13.74255   -6.63895   -6.02272
 kpt#  56, nband=  8, wtk=  1.00000, kpt=  0.8000  0.8000  0.7000 (reduced coord)
 -62.37093  -36.58540  -36.48004  -36.41424  -14.24563  -13.81823   -6.57456   -5.75724
 kpt#  57, nband=  8, wtk=  1.00000, kpt=  0.8167  0.8167  0.7250 (reduced coord)
 -62.37433  -36.56177  -36.48679  -36.39720  -14.42260  -13.89678   -6.50338   -5.46445
 kpt#  58, nband=  8, wtk=  1.00000, kpt=  0.8333  0.8333  0.7500 (reduced coord)
 -62.37793  -36.53466  -36.49380  -36.38130  -14.60205  -13.97603   -6.45303   -5.35326
 kpt#  59, nband=  8, wtk=  1.00000, kpt=  0.8500  0.8500  0.7750 (reduced coord)
 -62.38168  -36.50477  -36.50113  -36.36693  -14.77898  -14.05397   -6.45280   -5.26409
 kpt#  60, nband=  8, wtk=  1.00000, kpt=  0.8667  0.8667  0.8000 (reduced coord)
 -62.38538  -36.50852  -36.47292  -36.35375  -14.94888  -14.12873   -6.51204   -5.22027
 kpt#  61, nband=  8, wtk=  1.00000, kpt=  0.8833  0.8833  0.8250 (reduced coord)
 -62.38897  -36.51550  -36.44056  -36.34224  -15.10780  -14.19865   -6.61432   -5.00861
 kpt#  62, nband=  8, wtk=  1.00000, kpt=  0.9000  0.9000  0.8500 (reduced coord)
 -62.39241  -36.52223  -36.40936  -36.33246  -15.25235  -14.26225   -6.73641   -4.86514
 kpt#  63, nband=  8, wtk=  1.00000, kpt=  0.9167  0.9167  0.8750 (reduced coord)
 -62.39554  -36.52833  -36.38046  -36.32415  -15.37957  -14.31824   -6.86034   -4.65040
 kpt#  64, nband=  8, wtk=  1.00000, kpt=  0.9333  0.9333  0.9000 (reduced coord)
 -62.39825  -36.53347  -36.35507  -36.31736  -15.48703  -14.36552   -6.97406   -4.45881
 kpt#  65, nband=  8, wtk=  1.00000, kpt=  0.9500  0.9500  0.9250 (reduced coord)
 -62.40044  -36.53776  -36.33396  -36.31203  -15.57268  -14.40323   -7.06947   -4.28051
 kpt#  66, nband=  8, wtk=  1.00000, kpt=  0.9667  0.9667  0.9500 (reduced coord)
 -62.40212  -36.54110  -36.31849  -36.30827  -15.63499  -14.43067   -7.14114   -4.05807
 kpt#  67, nband=  8, wtk=  1.00000, kpt=  0.9833  0.9833  0.9750 (reduced coord)
 -62.40316  -36.54316  -36.30889  -36.30619  -15.67283  -14.44733   -7.18549   -4.02084
 kpt#  68, nband=  8, wtk=  1.00000, kpt=  1.0000  1.0000  1.0000 (reduced coord)
 -62.40345  -36.54396  -36.30522  -36.30521  -15.68552  -14.45293   -7.20050   -4.03144
 Total charge density [el/Bohr^3]
)     Maximum=    9.3391E-01  at reduced coord.    0.5000    0.7333    0.0000
)Next maximum=    9.3391E-01  at reduced coord.    0.5000    0.7667    0.0000
)     Minimum=    0.0000E+00  at reduced coord.    0.0000    0.0000    0.3750
)Next minimum=    0.0000E+00  at reduced coord.    0.4667    0.0333    0.3750
   Integrated=    2.6000E+01
 dataset: 2 , wall: 01:17 [minutes] , cpu: 01:16 [minutes] <<< TIME
 
== END DATASET(S) ==============================================================
================================================================================
  
 -outvars: echo values of variables after computation  --------
 
 These variables are accessible in NetCDF format (mos2_1o_OUT.nc)

            acell      5.9719125251E+00  5.9719125251E+00  3.7794522658E+01 Bohr
              amu      9.59400000E+01  3.20660000E+01
      chksymbreak           0
             ecut      3.00000000E+01 Hartree
           enunit1          0
           enunit2          1
           etotal1    -9.2382539192E+01
            fcart1     5.0962323604E-07 -7.6950615723E-07 -2.5166812911E-05
                      -6.6294322636E-08  7.8065683035E-07  6.7191237485E-03
                      -4.4332891340E-07 -1.1150673118E-08 -6.6939569356E-03
-          fftalg         512
           getden1          0
           getden2         -1
             iscf1          7
             iscf2         -2
           istwfk1       4    0    5    0    0    0    0    8    0    9
           istwfk2       2    0    0    0    0    0    0    0    0    0
                         0    0    0    0    0    0    0    3    0    0
                         0    0    0    0    0    0    0    0    0    0
                         0    0    0    0    0    0    0    0    0    0
                         0    0    0    0    0    0    0    0    0    0
                       outvar_i_n : Printing only first  50 k-points.
              ixc          11
           jdtset        1    2
              kpt1     0.00000000E+00  0.00000000E+00  5.00000000E-01
                       2.50000000E-01  0.00000000E+00  5.00000000E-01
                       5.00000000E-01  0.00000000E+00  5.00000000E-01
                       0.00000000E+00  2.50000000E-01  5.00000000E-01
                       2.50000000E-01  2.50000000E-01  5.00000000E-01
                       5.00000000E-01  2.50000000E-01  5.00000000E-01
                      -2.50000000E-01  2.50000000E-01  5.00000000E-01
                       0.00000000E+00  5.00000000E-01  5.00000000E-01
                       2.50000000E-01  5.00000000E-01  5.00000000E-01
                       5.00000000E-01  5.00000000E-01  5.00000000E-01
              kpt2     0.00000000E+00  0.00000000E+00  0.00000000E+00
                       2.94117647E-02  0.00000000E+00  0.00000000E+00
                       5.88235294E-02  0.00000000E+00  0.00000000E+00
                       8.82352941E-02  0.00000000E+00  0.00000000E+00
                       1.17647059E-01  0.00000000E+00  0.00000000E+00
                       1.47058824E-01  0.00000000E+00  0.00000000E+00
                       1.76470588E-01  0.00000000E+00  0.00000000E+00
                       2.05882353E-01  0.00000000E+00  0.00000000E+00
                       2.35294118E-01  0.00000000E+00  0.00000000E+00
                       2.64705882E-01  0.00000000E+00  0.00000000E+00
                       2.94117647E-01  0.00000000E+00  0.00000000E+00
                       3.23529412E-01  0.00000000E+00  0.00000000E+00
                       3.52941176E-01  0.00000000E+00  0.00000000E+00
                       3.82352941E-01  0.00000000E+00  0.00000000E+00
                       4.11764706E-01  0.00000000E+00  0.00000000E+00
                       4.41176471E-01  0.00000000E+00  0.00000000E+00
                       4.70588235E-01  0.00000000E+00  0.00000000E+00
                       5.00000000E-01  0.00000000E+00  0.00000000E+00
                       4.83333333E-01  3.33333333E-02  0.00000000E+00
                       4.66666667E-01  6.66666667E-02  0.00000000E+00
                       4.50000000E-01  1.00000000E-01  0.00000000E+00
                       4.33333333E-01  1.33333333E-01  0.00000000E+00
                       4.16666667E-01  1.66666667E-01  0.00000000E+00
                       4.00000000E-01  2.00000000E-01  0.00000000E+00
                       3.83333333E-01  2.33333333E-01  0.00000000E+00
                       3.66666667E-01  2.66666667E-01  0.00000000E+00
                       3.50000000E-01  3.00000000E-01  0.00000000E+00
                       3.33333333E-01  3.33333333E-01  0.00000000E+00
                       3.50000000E-01  3.50000000E-01  2.50000000E-02
                       3.66666667E-01  3.66666667E-01  5.00000000E-02
                       3.83333333E-01  3.83333333E-01  7.50000000E-02
                       4.00000000E-01  4.00000000E-01  1.00000000E-01
                       4.16666667E-01  4.16666667E-01  1.25000000E-01
                       4.33333333E-01  4.33333333E-01  1.50000000E-01
                       4.50000000E-01  4.50000000E-01  1.75000000E-01
                       4.66666667E-01  4.66666667E-01  2.00000000E-01
                       4.83333333E-01  4.83333333E-01  2.25000000E-01
                       5.00000000E-01  5.00000000E-01  2.50000000E-01
                       5.16666667E-01  5.16666667E-01  2.75000000E-01
                       5.33333333E-01  5.33333333E-01  3.00000000E-01
                       5.50000000E-01  5.50000000E-01  3.25000000E-01
                       5.66666667E-01  5.66666667E-01  3.50000000E-01
                       5.83333333E-01  5.83333333E-01  3.75000000E-01
                       6.00000000E-01  6.00000000E-01  4.00000000E-01
                       6.16666667E-01  6.16666667E-01  4.25000000E-01
                       6.33333333E-01  6.33333333E-01  4.50000000E-01
                       6.50000000E-01  6.50000000E-01  4.75000000E-01
                       6.66666667E-01  6.66666667E-01  5.00000000E-01
                       6.83333333E-01  6.83333333E-01  5.25000000E-01
                       7.00000000E-01  7.00000000E-01  5.50000000E-01
                       outvar_i_n : Printing only first  50 k-points.
           kptopt1          1
           kptopt2         -3
         kptrlatt        4    0    0      0    4    0      0    0    1
          kptrlen1     2.38876501E+01
          kptrlen2     3.00000000E+01
P           mkmem1         10
P           mkmem2         68
            natom           3
            nband1         14
            nband2          8
           nbdbuf1          0
           nbdbuf2          2
           ndtset           2
           ndivsm1          0
           ndivsm2         10
            ngfft          30      30     192
             nkpt1         10
             nkpt2         68
            nstep          20
             nsym           1
           ntypat           2
              occ      2.000000  2.000000  2.000000  2.000000  2.000000  2.000000
                       2.000000  2.000000  2.000000  2.000000  2.000000  2.000000
                       2.000000  0.000000
            rprim      5.0000000000E-01 -8.6602540378E-01  0.0000000000E+00
                       5.0000000000E-01  8.6602540378E-01  0.0000000000E+00
                       0.0000000000E+00  0.0000000000E+00  1.0000000000E+00
           shiftk1     0.00000000E+00  0.00000000E+00  5.00000000E-01
           shiftk2     5.00000000E-01  5.00000000E-01  5.00000000E-01
          spgroup           1
           strten1     9.2595281479E-06  9.2531383005E-06  3.7180769211E-05
                       1.7448146648E-09 -3.4040341932E-10 -1.9496412790E-09
           toldfe1     1.00000000E-07 Hartree
           toldfe2     0.00000000E+00 Hartree
           tolwfr1     0.00000000E+00
           tolwfr2     1.00000000E-12
            typat      1  2  2
              wtk1       0.06250    0.12500    0.06250    0.12500    0.12500    0.12500
                         0.12500    0.06250    0.12500    0.06250
              wtk2       1.00000    1.00000    1.00000    1.00000    1.00000    1.00000
                         1.00000    1.00000    1.00000    1.00000    1.00000    1.00000
                         1.00000    1.00000    1.00000    1.00000    1.00000    1.00000
                         1.00000    1.00000    1.00000    1.00000    1.00000    1.00000
                         1.00000    1.00000    1.00000    1.00000    1.00000    1.00000
                         1.00000    1.00000    1.00000    1.00000    1.00000    1.00000
                         1.00000    1.00000    1.00000    1.00000    1.00000    1.00000
                         1.00000    1.00000    1.00000    1.00000    1.00000    1.00000
                         1.00000    1.00000
                       outvars : Printing only first  50 k-points.
           xangst      1.5801000000E+00  9.1227116034E-01  0.0000000000E+00
                       1.5801000000E+00 -9.1227116034E-01 -1.5850000000E+00
                       1.5801000000E+00 -9.1227116034E-01  1.5850000000E+00
            xcart      2.9859562626E+00  1.7239426520E+00  0.0000000000E+00
                       2.9859562626E+00 -1.7239426520E+00 -2.9952159206E+00
                       2.9859562626E+00 -1.7239426520E+00  2.9952159206E+00
             xred      3.3333333333E-01  6.6666666667E-01  0.0000000000E+00
                       6.6666666667E-01  3.3333333333E-01 -7.9250000000E-02
                       6.6666666667E-01  3.3333333333E-01  7.9250000000E-02
            znucl       42.00000   16.00000
 
================================================================================
  
 Proc.   0 individual time (sec): cpu=        131.4  wall=        142.6
 
 Calculation completed.
.Delivered   4 WARNINGs and  10 COMMENTs to log file.

--- !FinalSummary
program: abinit
version: 9.10.3
start_datetime: Wed May 07 11:24:00 2025
end_datetime: Wed May 07 11:26:22 2025
overall_cpu_time:         131.4
overall_wall_time:         142.6
exit_requested_by_user: no 
timelimit: 0
pseudos: 
    Mo  : 228091cb5782e08cb8d68936b3c7e57b
    S   : ee4b2e2802f5df21cf2ecc26b1029f69
usepaw: 0
mpi_procs: 1
omp_threads: 1
num_warnings: 4
num_comments: 10
...
