
.Version 9.10.3 of ABINIT 
.(MPI version, prepared for a x86_64_linux_intel2021.6 computer) 

.Copyright (C) 1998-2022 ABINIT group . 
 ABINIT comes with ABSOLUTELY NO WARRANTY.
 It is free software, and you are welcome to redistribute it
 under certain conditions (GNU General Public License,
 see ~abinit/COPYING or http://www.gnu.org/copyleft/gpl.txt).

 ABINIT is a project of the Universite Catholique de Louvain,
 Corning Inc. and other collaborators, see ~abinit/doc/developers/contributors.txt .
 Please read https://docs.abinit.org/theory/acknowledgments for suggested
 acknowledgments of the ABINIT effort.
 For more information, see https://www.abinit.org .

.Starting date : Wed  7 May 2025.
- ( at 11h24 )
  
- input  file    -> mos2_1.abi
- output file    -> mos2_1.abo
- root for input  files -> mos2_1i
- root for output files -> mos2_1o
 
 
 DATASET    1 : space group P1 (#  1); Bravais aP (primitive triclinic)
================================================================================
 Values of the parameters that define the memory need for DATASET  1.
     intxc =       0    ionmov =       0      iscf =       7    lmnmax =       6
     lnmax =       6     mgfft =     192  mpssoang =       3    mqgrid =    9319
     natom =       3  nloc_mem =       1    nspden =       1   nspinor =       1
    nsppol =       1      nsym =       1    n1xccc =    2501    ntypat =       2
    occopt =       1   xclevel =       2
-    mband =          14        mffmem =           1         mkmem =          10
       mpw =        9186          nfft =      172800          nkpt =          10
================================================================================
P This job should need less than                      75.199 Mbytes of memory.
  Rough estimation (10% accuracy) of disk space for files :
_ WF disk file :     19.625 Mbytes ; DEN or POT disk file :      1.320 Mbytes.
================================================================================
 
 
 DATASET    2 : space group P1 (#  1); Bravais aP (primitive triclinic)
================================================================================
 Values of the parameters that define the memory need for DATASET  2.
     intxc =       0    ionmov =       0      iscf =      -2    lmnmax =       6
     lnmax =       6     mgfft =     192  mpssoang =       3    mqgrid =    9319
     natom =       3  nloc_mem =       1    nspden =       1   nspinor =       1
    nsppol =       1      nsym =       1    n1xccc =    2501    ntypat =       2
    occopt =       1   xclevel =       2
-    mband =           8        mffmem =           1         mkmem =          68
       mpw =        9256          nfft =      172800          nkpt =          68
================================================================================
P This job should need less than                     117.553 Mbytes of memory.
  Rough estimation (10% accuracy) of disk space for files :
_ WF disk file :     76.834 Mbytes ; DEN or POT disk file :      1.320 Mbytes.
================================================================================
 
--------------------------------------------------------------------------------
------------- Echo of variables that govern the present computation ------------
--------------------------------------------------------------------------------
-
- outvars: echo of selected default values                                      
-   iomode0 =  0 , fftalg0 =512 , wfoptalg0 =  0
-
- outvars: echo of global parameters not present in the input file              
-  max_nthreads =    0
-
 -outvars: echo values of preprocessed input variables --------
            acell      5.9719125251E+00  5.9719125251E+00  3.7794522658E+01 Bohr
              amu      9.59400000E+01  3.20660000E+01
      chksymbreak           0
             ecut      3.00000000E+01 Hartree
           enunit1          0
           enunit2          1
-          fftalg         512
           getden1          0
           getden2         -1
             iscf1          7
             iscf2         -2
           istwfk1       4    0    5    0    0    0    0    8    0    9
           istwfk2       2    0    0    0    0    0    0    0    0    0
                         0    0    0    0    0    0    0    3    0    0
                         0    0    0    0    0    0    0    0    0    0
                         0    0    0    0    0    0    0    0    0    0
                         0    0    0    0    0    0    0    0    0    0
                       outvar_i_n : Printing only first  50 k-points.
              ixc          11
           jdtset        1    2
              kpt1     0.00000000E+00  0.00000000E+00  5.00000000E-01
                       2.50000000E-01  0.00000000E+00  5.00000000E-01
                       5.00000000E-01  0.00000000E+00  5.00000000E-01
                       0.00000000E+00  2.50000000E-01  5.00000000E-01
                       2.50000000E-01  2.50000000E-01  5.00000000E-01
                       5.00000000E-01  2.50000000E-01  5.00000000E-01
                      -2.50000000E-01  2.50000000E-01  5.00000000E-01
                       0.00000000E+00  5.00000000E-01  5.00000000E-01
                       2.50000000E-01  5.00000000E-01  5.00000000E-01
                       5.00000000E-01  5.00000000E-01  5.00000000E-01
              kpt2     0.00000000E+00  0.00000000E+00  0.00000000E+00
                       2.94117647E-02  0.00000000E+00  0.00000000E+00
                       5.88235294E-02  0.00000000E+00  0.00000000E+00
                       8.82352941E-02  0.00000000E+00  0.00000000E+00
                       1.17647059E-01  0.00000000E+00  0.00000000E+00
                       1.47058824E-01  0.00000000E+00  0.00000000E+00
                       1.76470588E-01  0.00000000E+00  0.00000000E+00
                       2.05882353E-01  0.00000000E+00  0.00000000E+00
                       2.35294118E-01  0.00000000E+00  0.00000000E+00
                       2.64705882E-01  0.00000000E+00  0.00000000E+00
                       2.94117647E-01  0.00000000E+00  0.00000000E+00
                       3.23529412E-01  0.00000000E+00  0.00000000E+00
                       3.52941176E-01  0.00000000E+00  0.00000000E+00
                       3.82352941E-01  0.00000000E+00  0.00000000E+00
                       4.11764706E-01  0.00000000E+00  0.00000000E+00
                       4.41176471E-01  0.00000000E+00  0.00000000E+00
                       4.70588235E-01  0.00000000E+00  0.00000000E+00
                       5.00000000E-01  0.00000000E+00  0.00000000E+00
                       4.83333333E-01  3.33333333E-02  0.00000000E+00
                       4.66666667E-01  6.66666667E-02  0.00000000E+00
                       4.50000000E-01  1.00000000E-01  0.00000000E+00
                       4.33333333E-01  1.33333333E-01  0.00000000E+00
                       4.16666667E-01  1.66666667E-01  0.00000000E+00
                       4.00000000E-01  2.00000000E-01  0.00000000E+00
                       3.83333333E-01  2.33333333E-01  0.00000000E+00
                       3.66666667E-01  2.66666667E-01  0.00000000E+00
                       3.50000000E-01  3.00000000E-01  0.00000000E+00
                       3.33333333E-01  3.33333333E-01  0.00000000E+00
                       3.50000000E-01  3.50000000E-01  2.50000000E-02
                       3.66666667E-01  3.66666667E-01  5.00000000E-02
                       3.83333333E-01  3.83333333E-01  7.50000000E-02
                       4.00000000E-01  4.00000000E-01  1.00000000E-01
                       4.16666667E-01  4.16666667E-01  1.25000000E-01
                       4.33333333E-01  4.33333333E-01  1.50000000E-01
                       4.50000000E-01  4.50000000E-01  1.75000000E-01
                       4.66666667E-01  4.66666667E-01  2.00000000E-01
                       4.83333333E-01  4.83333333E-01  2.25000000E-01
                       5.00000000E-01  5.00000000E-01  2.50000000E-01
                       5.16666667E-01  5.16666667E-01  2.75000000E-01
                       5.33333333E-01  5.33333333E-01  3.00000000E-01
                       5.50000000E-01  5.50000000E-01  3.25000000E-01
                       5.66666667E-01  5.66666667E-01  3.50000000E-01
                       5.83333333E-01  5.83333333E-01  3.75000000E-01
                       6.00000000E-01  6.00000000E-01  4.00000000E-01
                       6.16666667E-01  6.16666667E-01  4.25000000E-01
                       6.33333333E-01  6.33333333E-01  4.50000000E-01
                       6.50000000E-01  6.50000000E-01  4.75000000E-01
                       6.66666667E-01  6.66666667E-01  5.00000000E-01
                       6.83333333E-01  6.83333333E-01  5.25000000E-01
                       7.00000000E-01  7.00000000E-01  5.50000000E-01
                       outvar_i_n : Printing only first  50 k-points.
           kptopt1          1
           kptopt2         -3
         kptrlatt        4    0    0      0    4    0      0    0    1
          kptrlen1     2.38876501E+01
          kptrlen2     3.00000000E+01
P           mkmem1         10
P           mkmem2         68
            natom           3
            nband1         14
            nband2          8
           nbdbuf1          0
           nbdbuf2          2
           ndtset           2
           ndivsm1          0
           ndivsm2         10
            ngfft          30      30     192
             nkpt1         10
             nkpt2         68
            nstep          20
             nsym           1
           ntypat           2
              occ      2.000000  2.000000  2.000000  2.000000  2.000000  2.000000
                       2.000000  2.000000  2.000000  2.000000  2.000000  2.000000
                       2.000000  0.000000
            rprim      5.0000000000E-01 -8.6602540378E-01  0.0000000000E+00
                       5.0000000000E-01  8.6602540378E-01  0.0000000000E+00
                       0.0000000000E+00  0.0000000000E+00  1.0000000000E+00
           shiftk1     0.00000000E+00  0.00000000E+00  5.00000000E-01
           shiftk2     5.00000000E-01  5.00000000E-01  5.00000000E-01
          spgroup           1
           toldfe1     1.00000000E-07 Hartree
           toldfe2     0.00000000E+00 Hartree
           tolwfr1     0.00000000E+00
           tolwfr2     1.00000000E-12
            typat      1  2  2
              wtk1       0.06250    0.12500    0.06250    0.12500    0.12500    0.12500
                         0.12500    0.06250    0.12500    0.06250
              wtk2       1.00000    1.00000    1.00000    1.00000    1.00000    1.00000
                         1.00000    1.00000    1.00000    1.00000    1.00000    1.00000
                         1.00000    1.00000    1.00000    1.00000    1.00000    1.00000
                         1.00000    1.00000    1.00000    1.00000    1.00000    1.00000
                         1.00000    1.00000    1.00000    1.00000    1.00000    1.00000
                         1.00000    1.00000    1.00000    1.00000    1.00000    1.00000
                         1.00000    1.00000    1.00000    1.00000    1.00000    1.00000
                         1.00000    1.00000    1.00000    1.00000    1.00000    1.00000
                         1.00000    1.00000
                       outvars : Printing only first  50 k-points.
           xangst      1.5801000000E+00  9.1227116034E-01  0.0000000000E+00
                       1.5801000000E+00 -9.1227116034E-01 -1.5850000000E+00
                       1.5801000000E+00 -9.1227116034E-01  1.5850000000E+00
            xcart      2.9859562626E+00  1.7239426520E+00  0.0000000000E+00
                       2.9859562626E+00 -1.7239426520E+00 -2.9952159206E+00
                       2.9859562626E+00 -1.7239426520E+00  2.9952159206E+00
             xred      3.3333333333E-01  6.6666666667E-01  0.0000000000E+00
                       6.6666666667E-01  3.3333333333E-01 -7.9250000000E-02
                       6.6666666667E-01  3.3333333333E-01  7.9250000000E-02
            znucl       42.00000   16.00000
 
================================================================================
 
 chkinp: Checking input parameters for consistency, jdtset=   1.
 
 chkinp: Checking input parameters for consistency, jdtset=   2.
 
================================================================================
== DATASET  1 ==================================================================
-   mpi_nproc: 1, omp_nthreads: -1 (-1 if OMP is not activated)
 

--- !DatasetInfo
iteration_state: {dtset: 1, }
dimensions: {natom: 3, nkpt: 10, mband: 14, nsppol: 1, nspinor: 1, nspden: 1, mpw: 9186, }
cutoff_energies: {ecut:  30.0, pawecutdg:  -1.0, }
electrons: {nelect:   2.60000000E+01, charge:   0.00000000E+00, occopt:   1.00000000E+00, tsmear:   1.00000000E-02, }
meta: {optdriver: 0, ionmov: 0, optcell: 0, iscf: 7, paral_kgb: 0, }
...

 Exchange-correlation functional for the present dataset will be:
  GGA: Perdew-Burke-Ernzerhof functional - ixc=11
 Citation for XC functional:
  J.P.Perdew, K.Burke, M.Ernzerhof, PRL 77, 3865 (1996)
 
 Real(R)+Recip(G) space primitive vectors, cartesian coordinates (Bohr,Bohr^-1):
 R(1)=  2.9859563 -5.1718280  0.0000000  G(1)=  0.1674505 -0.0966776  0.0000000
 R(2)=  2.9859563  5.1718280  0.0000000  G(2)=  0.1674505  0.0966776  0.0000000
 R(3)=  0.0000000  0.0000000 37.7945227  G(3)=  0.0000000  0.0000000  0.0264589
 Unit cell volume ucvol=  1.1673104E+03 bohr^3
 Angles (23,13,12)=  9.00000000E+01  9.00000000E+01  1.20000000E+02 degrees
 
 getcut: wavevector=  0.0000  0.0000  0.0000  ngfft=  30  30 192
         ecut(hartree)=     30.000   => boxcut(ratio)=   2.03894
 
--- Pseudopotential description ------------------------------------------------
- pspini: atom type   1  psp file is ../persudo/Mo.psp8
- pspatm: opening atomic psp file    ../persudo/Mo.psp8
- Mo    ONCVPSP-3.2.3.1  r_core=   1.45541   1.45541   1.35488
- 42.00000  14.00000    170510                znucl, zion, pspdat
    8   11    2    4       600   0.00000      pspcod,pspxc,lmax,lloc,mmax,r2well
    5.99000000000000    3.00000000000000    0.00000000000000   rchrg,fchrg,qchrg
     nproj     2     2     2
     extension_switch     1
  pspatm : epsatm=   15.95693586
         --- l  ekb(1:nproj) -->
             0   13.833287    1.350687
             1    8.015347    1.134034
             2    2.765699    0.969071
 pspatm: atomic psp has been read  and splines computed
 
- pspini: atom type   2  psp file is ../persudo/S.psp8
- pspatm: opening atomic psp file    ../persudo/S.psp8
- S     ONCVPSP-4.0.1  r_core=   1.45687   1.45687   1.45687
- 16.00000   6.00000    220131                znucl, zion, pspdat
    8   11    2    4       600   0.00000      pspcod,pspxc,lmax,lloc,mmax,r2well
    5.99000000000000    6.00000000000000    0.00000000000000   rchrg,fchrg,qchrg
     nproj     2     2     2
     extension_switch     1
  pspatm : epsatm=    9.04179351
         --- l  ekb(1:nproj) -->
             0    6.774234    0.542270
             1    3.022426    0.737017
             2   -5.033160   -1.531047
 pspatm: atomic psp has been read  and splines computed
 
   8.85053595E+02                                ecore*ucvol(ha*bohr**3)
--------------------------------------------------------------------------------
 
_setup2: Arith. and geom. avg. npw (full set) are    9161.875    9161.844
 
================================================================================

--- !BeginCycle
iteration_state: {dtset: 1, }
solver: {iscf: 7, nstep: 20, nline: 4, wfoptalg: 0, }
tolerances: {toldfe: 1.00E-07, }
...
 
     iter   Etot(hartree)      deltaE(h)  residm     vres2
 ETOT  1  -91.815004736262    -9.182E+01 1.076E-01 4.000E+03
 ETOT  2  -89.673643914317     2.141E+00 4.565E-02 3.349E+04
 ETOT  3  -92.354492344174    -2.681E+00 6.624E-02 5.243E+02
 ETOT  4  -92.373791467268    -1.930E-02 1.244E-02 3.263E+02
 ETOT  5  -92.378050848937    -4.259E-03 1.247E-03 2.100E+02
 ETOT  6  -92.380252303235    -2.201E-03 2.709E-03 1.383E+02
 ETOT  7  -92.381829496507    -1.577E-03 6.670E-04 7.352E+01
 ETOT  8  -92.382236444238    -4.069E-04 1.220E-03 5.173E+01
 ETOT  9  -92.382332758135    -9.631E-05 6.714E-04 4.470E+01
 ETOT 10  -92.382374867012    -4.211E-05 7.851E-04 4.109E+01
 ETOT 11  -92.382477918982    -1.031E-04 5.840E-04 3.186E+01
 ETOT 12  -92.382500517619    -2.260E-05 7.834E-04 2.726E+01
 ETOT 13  -92.382487654863     1.286E-05 5.466E-04 2.768E+01
 ETOT 14  -92.382507802115    -2.015E-05 8.075E-04 2.421E+01
 ETOT 15  -92.382520476797    -1.267E-05 6.761E-04 2.197E+01
 ETOT 16  -92.382525363468    -4.887E-06 7.051E-04 2.011E+01
 ETOT 17  -92.382537393546    -1.203E-05 7.198E-04 1.631E+01
 ETOT 18  -92.382539311417    -1.918E-06 5.747E-04 1.550E+01
 ETOT 19  -92.382541201477    -1.890E-06 6.579E-04 1.372E+01
 ETOT 20  -92.382539191783     2.010E-06 4.839E-04 1.342E+01
 
 Cartesian components of stress tensor (hartree/bohr^3)
  sigma(1 1)=  9.25952815E-06  sigma(3 2)=  1.74481466E-09
  sigma(2 2)=  9.25313830E-06  sigma(3 1)= -3.40403419E-10
  sigma(3 3)=  3.71807692E-05  sigma(2 1)= -1.94964128E-09
 
 
 scprqt:  WARNING -
  nstep=   20 was not enough SCF cycles to converge;
  maximum energy difference=  2.010E-06 exceeds toldfe=  1.000E-07
 

--- !ResultsGS
iteration_state: {dtset: 1, }
comment   : Summary of ground state results
lattice_vectors:
- [  2.9859563,  -5.1718280,   0.0000000, ]
- [  2.9859563,   5.1718280,   0.0000000, ]
- [  0.0000000,   0.0000000,  37.7945227, ]
lattice_lengths: [   5.97191,    5.97191,   37.79452, ]
lattice_angles: [ 90.000,  90.000, 120.000, ] # degrees, (23, 13, 12)
lattice_volume:   1.1673104E+03
convergence: {deltae:  2.010E-06, res2:  1.342E+01, residm:  4.839E-04, diffor: null, }
etotal    :  -9.23825392E+01
entropy   :   0.00000000E+00
fermie    :  -7.45630452E-02
cartesian_stress_tensor: # hartree/bohr^3
- [  9.25952815E-06,  -1.94964128E-09,  -3.40403419E-10, ]
- [ -1.94964128E-09,   9.25313830E-06,   1.74481466E-09, ]
- [ -3.40403419E-10,   1.74481466E-09,   3.71807692E-05, ]
pressure_GPa:  -5.4619E-01
xred      :
- [  3.3333E-01,   6.6667E-01,   0.0000E+00, Mo]
- [  6.6667E-01,   3.3333E-01,  -7.9250E-02,  S]
- [  6.6667E-01,   3.3333E-01,   7.9250E-02,  S]
cartesian_forces: # hartree/bohr
- [  5.09623236E-07,  -7.69506157E-07,  -2.51668129E-05, ]
- [ -6.62943226E-08,   7.80656830E-07,   6.71912375E-03, ]
- [ -4.43328913E-07,  -1.11506731E-08,  -6.69395694E-03, ]
force_length_stats: {min:   2.51837314E-05, max:   6.71912379E-03, mean:   4.47942149E-03, }
...

 Integrated electronic density in atomic spheres:
 ------------------------------------------------
 Atom  Sphere_radius  Integrated_density
    1        2.00000         10.53788721
    2        2.00000          3.92033587
    3        2.00000          3.92035778
================================================================================
 
 ----iterations are completed or convergence reached----
 
 Mean square residual over all n,k,spin=   80.752E-07; max=  48.387E-05
 reduced coordinates (array xred) for    3 atoms
       0.333333333333      0.666666666667      0.000000000000
       0.666666666667      0.333333333333     -0.079250000000
       0.666666666667      0.333333333333      0.079250000000
 rms dE/dt=  1.1949E-01; max dE/dt=  2.5295E-01; dE/dt below (all hartree)
    1      -0.000006062873      0.000002119797      0.000901572314
    2       0.000003673968     -0.000004177715     -0.253995670120
    3       0.000000704685      0.000001043186      0.252945311706
 
 cartesian coordinates (angstrom) at end:
    1      1.58010000000000     0.91227116034185     0.00000000000000
    2      1.58010000000000    -0.91227116034185    -1.58500000000000
    3      1.58010000000000    -0.91227116034185     1.58500000000000
 
 cartesian forces (hartree/bohr) at end:
    1      0.00000050962324    -0.00000076950616    -0.00002516681291
    2     -0.00000006629432     0.00000078065683     0.00671912374852
    3     -0.00000044332891    -0.00000001115067    -0.00669395693561
 frms,max,avg= 3.1615102E-03 6.7191237E-03   1.506E-07 -2.157E-08  1.312E-06 h/b
 
 cartesian forces (eV/Angstrom) at end:
    1      0.00002620587825    -0.00003956959424    -0.00129412944383
    2     -0.00000340899085     0.00004014298486     0.34551120599286
    3     -0.00002279688740    -0.00000057339062    -0.34421707654903
 frms,max,avg= 1.6257138E-01 3.4551121E-01   7.747E-06 -1.109E-06  6.748E-05 e/A
 length scales=  5.971912525145  5.971912525145 37.794522657713 bohr
              =  3.160200000000  3.160200000000 20.000000000000 angstroms
 prteigrs : about to open file mos2_1o_DS1_EIG
 Fermi (or HOMO) energy (hartree) =  -0.07456   Average Vxc (hartree)=  -0.14371
 Eigenvalues (hartree) for nkpt=  10  k points:
 kpt#   1, nband= 14, wtk=  0.06250, kpt=  0.0000  0.0000  0.5000 (reduced coord)
  -2.30687   -1.35635   -1.34777   -1.34777   -0.58815   -0.54247   -0.27634   -0.16105
  -0.16105   -0.13906   -0.12080   -0.12080   -0.07456    0.03327
 prteigrs : prtvol=0 or 1, do not print more k-points.
 

--- !EnergyTerms
iteration_state     : {dtset: 1, }
comment             : Components of total free energy in Hartree
kinetic             :  2.99590419018085E+01
hartree             :  2.81703399373799E+02
xc                  : -1.66041040367031E+01
Ewald energy        :  2.05366925133136E+02
psp_core            :  7.58198985105847E-01
local_psp           : -6.05175070698612E+02
non_local_psp       :  1.16090701496838E+01
total_energy        : -9.23825391917827E+01
total_energy_eV     : -2.51385673590909E+03
band_energy         : -1.73081132151476E+01
...

 
 Cartesian components of stress tensor (hartree/bohr^3)
  sigma(1 1)=  9.25952815E-06  sigma(3 2)=  1.74481466E-09
  sigma(2 2)=  9.25313830E-06  sigma(3 1)= -3.40403419E-10
  sigma(3 3)=  3.71807692E-05  sigma(2 1)= -1.94964128E-09
 
-Cartesian components of stress tensor (GPa)         [Pressure= -5.4619E-01 GPa]
- sigma(1 1)=  2.72424678E-01  sigma(3 2)=  5.13342111E-05
- sigma(2 2)=  2.72236682E-01  sigma(3 1)= -1.00150127E-05
- sigma(3 3)=  1.09389581E+00  sigma(2 1)= -5.73604171E-05
 
================================================================================
== DATASET  2 ==================================================================
-   mpi_nproc: 1, omp_nthreads: -1 (-1 if OMP is not activated)
 

--- !DatasetInfo
iteration_state: {dtset: 2, }
dimensions: {natom: 3, nkpt: 68, mband: 8, nsppol: 1, nspinor: 1, nspden: 1, mpw: 9256, }
cutoff_energies: {ecut:  30.0, pawecutdg:  -1.0, }
electrons: {nelect:   2.60000000E+01, charge:   0.00000000E+00, occopt:   1.00000000E+00, tsmear:   1.00000000E-02, }
meta: {optdriver: 0, ionmov: 0, optcell: 0, iscf: -2, paral_kgb: 0, }
...

 mkfilename : getden/=0, take file _DEN from output of DATASET   1.
 
 Exchange-correlation functional for the present dataset will be:
  GGA: Perdew-Burke-Ernzerhof functional - ixc=11
 Citation for XC functional:
  J.P.Perdew, K.Burke, M.Ernzerhof, PRL 77, 3865 (1996)
 
 Real(R)+Recip(G) space primitive vectors, cartesian coordinates (Bohr,Bohr^-1):
 R(1)=  2.9859563 -5.1718280  0.0000000  G(1)=  0.1674505 -0.0966776  0.0000000
 R(2)=  2.9859563  5.1718280  0.0000000  G(2)=  0.1674505  0.0966776  0.0000000
 R(3)=  0.0000000  0.0000000 37.7945227  G(3)=  0.0000000  0.0000000  0.0264589
 Unit cell volume ucvol=  1.1673104E+03 bohr^3
 Angles (23,13,12)=  9.00000000E+01  9.00000000E+01  1.20000000E+02 degrees
 
 getcut: wavevector=  0.0000  0.0000  0.0000  ngfft=  30  30 192
         ecut(hartree)=     30.000   => boxcut(ratio)=   2.03894
--------------------------------------------------------------------------------
 
 
================================================================================
 prteigrs : about to open file mos2_1o_DS2_EIG
 Non-SCF case, kpt    1 (  0.00000  0.00000  0.00000), residuals and eigenvalues=
  7.75E-13  3.88E-13  2.78E-13  5.60E-13  8.59E-13  5.63E-13  3.75E-10  6.23E-05
 -2.2933E+00 -1.3430E+00 -1.3342E+00 -1.3342E+00 -5.7643E-01 -5.3114E-01
 -2.6461E-01 -1.4768E-01
 Non-SCF case, kpt    2 (  0.02941  0.00000  0.00000), residuals and eigenvalues=
  5.75E-13  7.74E-13  8.77E-13  4.83E-13  9.27E-13  7.38E-13  5.63E-12  3.87E-05
 -2.2933E+00 -1.3429E+00 -1.3343E+00 -1.3342E+00 -5.7595E-01 -5.3092E-01
 -2.6404E-01 -1.4923E-01
 Non-SCF case, kpt    3 (  0.05882  0.00000  0.00000), residuals and eigenvalues=
  8.21E-13  4.50E-13  3.37E-13  5.45E-13  7.94E-13  2.94E-13  4.13E-11  8.26E-05
 -2.2932E+00 -1.3429E+00 -1.3347E+00 -1.3343E+00 -5.7451E-01 -5.3029E-01
 -2.6235E-01 -1.5194E-01
 Non-SCF case, kpt    4 (  0.08824  0.00000  0.00000), residuals and eigenvalues=
  6.86E-13  9.44E-13  8.09E-13  8.09E-13  9.74E-13  7.41E-13  1.63E-11  1.18E-04
 -2.2932E+00 -1.3427E+00 -1.3353E+00 -1.3344E+00 -5.7213E-01 -5.2924E-01
 -2.5963E-01 -1.4490E-01
 Non-SCF case, kpt    5 (  0.11765  0.00000  0.00000), residuals and eigenvalues=
  9.20E-13  8.54E-13  4.93E-13  9.61E-13  5.39E-13  5.35E-13  1.51E-11  1.39E-04
 -2.2931E+00 -1.3426E+00 -1.3361E+00 -1.3346E+00 -5.6887E-01 -5.2781E-01
 -2.5602E-01 -1.6337E-01
 Non-SCF case, kpt    6 (  0.14706  0.00000  0.00000), residuals and eigenvalues=
  6.10E-13  5.71E-13  8.09E-13  4.98E-13  6.01E-13  8.12E-13  2.10E-12  7.09E-05
 -2.2930E+00 -1.3424E+00 -1.3371E+00 -1.3349E+00 -5.6478E-01 -5.2601E-01
 -2.5179E-01 -1.7164E-01
 Non-SCF case, kpt    7 (  0.17647  0.00000  0.00000), residuals and eigenvalues=
  6.63E-13  3.02E-13  5.18E-13  3.03E-13  6.89E-13  2.81E-13  2.00E-10  9.03E-05
 -2.2929E+00 -1.3421E+00 -1.3383E+00 -1.3351E+00 -5.5996E-01 -5.2389E-01
 -2.4733E-01 -1.7945E-01
 Non-SCF case, kpt    8 (  0.20588  0.00000  0.00000), residuals and eigenvalues=
  4.27E-13  5.43E-13  2.86E-13  3.65E-13  8.45E-13  7.44E-13  2.17E-09  2.73E-05
 -2.2927E+00 -1.3419E+00 -1.3395E+00 -1.3354E+00 -5.5449E-01 -5.2150E-01
 -2.4327E-01 -1.8734E-01
 Non-SCF case, kpt    9 (  0.23529  0.00000  0.00000), residuals and eigenvalues=
  7.06E-13  7.25E-13  3.00E-13  4.28E-13  9.40E-13  6.06E-13  2.22E-08  7.46E-06
 -2.2926E+00 -1.3416E+00 -1.3408E+00 -1.3357E+00 -5.4851E-01 -5.1889E-01
 -2.4054E-01 -1.9367E-01
 Non-SCF case, kpt   10 (  0.26471  0.00000  0.00000), residuals and eigenvalues=
  8.08E-13  3.27E-13  6.42E-13  3.84E-13  2.74E-13  6.55E-13  1.92E-08  8.83E-06
 -2.2925E+00 -1.3422E+00 -1.3414E+00 -1.3360E+00 -5.4217E-01 -5.1615E-01
 -2.4020E-01 -1.9772E-01
 Non-SCF case, kpt   11 (  0.29412  0.00000  0.00000), residuals and eigenvalues=
  3.78E-13  4.70E-13  3.92E-13  7.98E-13  9.61E-13  9.13E-13  4.78E-09  2.38E-05
 -2.2923E+00 -1.3435E+00 -1.3411E+00 -1.3363E+00 -5.3564E-01 -5.1334E-01
 -2.4269E-01 -2.0108E-01
 Non-SCF case, kpt   12 (  0.32353  0.00000  0.00000), residuals and eigenvalues=
  6.43E-13  4.44E-13  6.65E-13  7.85E-13  4.75E-13  7.74E-13  2.64E-08  3.49E-05
 -2.2922E+00 -1.3447E+00 -1.3408E+00 -1.3366E+00 -5.2913E-01 -5.1058E-01
 -2.4730E-01 -2.1018E-01
 Non-SCF case, kpt   13 (  0.35294  0.00000  0.00000), residuals and eigenvalues=
  7.16E-13  9.49E-13  9.10E-13  5.54E-13  4.71E-13  9.50E-13  3.28E-09  8.60E-06
 -2.2921E+00 -1.3458E+00 -1.3406E+00 -1.3369E+00 -5.2289E-01 -5.0796E-01
 -2.5288E-01 -2.1755E-01
 Non-SCF case, kpt   14 (  0.38235  0.00000  0.00000), residuals and eigenvalues=
  7.65E-13  7.00E-13  2.70E-13  9.51E-13  4.79E-13  5.23E-13  6.40E-09  1.40E-06
 -2.2920E+00 -1.3468E+00 -1.3404E+00 -1.3371E+00 -5.1718E-01 -5.0561E-01
 -2.5850E-01 -2.2395E-01
 Non-SCF case, kpt   15 (  0.41176  0.00000  0.00000), residuals and eigenvalues=
  6.03E-13  7.95E-13  3.82E-13  4.38E-13  9.45E-13  4.79E-13  1.21E-09  1.26E-06
 -2.2919E+00 -1.3476E+00 -1.3402E+00 -1.3373E+00 -5.1231E-01 -5.0363E-01
 -2.6352E-01 -2.2918E-01
 Non-SCF case, kpt   16 (  0.44118  0.00000  0.00000), residuals and eigenvalues=
  4.17E-13  4.94E-13  5.82E-13  4.43E-13  4.87E-13  5.52E-13  1.14E-08  1.41E-06
 -2.2918E+00 -1.3482E+00 -1.3401E+00 -1.3374E+00 -5.0856E-01 -5.0212E-01
 -2.6746E-01 -2.3308E-01
 Non-SCF case, kpt   17 (  0.47059  0.00000  0.00000), residuals and eigenvalues=
  6.72E-13  4.69E-13  9.15E-13  6.22E-13  4.72E-13  8.69E-13  2.74E-09  2.20E-07
 -2.2918E+00 -1.3485E+00 -1.3400E+00 -1.3375E+00 -5.0619E-01 -5.0118E-01
 -2.6998E-01 -2.3549E-01
 Non-SCF case, kpt   18 (  0.50000  0.00000  0.00000), residuals and eigenvalues=
  6.46E-13  3.84E-13  2.89E-13  2.58E-13  3.47E-13  2.98E-13  6.39E-09  5.66E-06
 -2.2918E+00 -1.3486E+00 -1.3400E+00 -1.3375E+00 -5.0537E-01 -5.0086E-01
 -2.7085E-01 -2.3629E-01
 Non-SCF case, kpt   19 (  0.48333  0.03333  0.00000), residuals and eigenvalues=
  7.50E-13  6.45E-13  3.80E-13  5.60E-13  5.96E-13  2.27E-13  1.46E-09  2.57E-07
 -2.2918E+00 -1.3486E+00 -1.3400E+00 -1.3376E+00 -5.0516E-01 -5.0073E-01
 -2.7024E-01 -2.3667E-01
 Non-SCF case, kpt   20 (  0.46667  0.06667  0.00000), residuals and eigenvalues=
  8.55E-13  4.99E-13  9.47E-13  8.38E-13  5.75E-13  9.69E-13  2.47E-08  1.23E-06
 -2.2918E+00 -1.3484E+00 -1.3400E+00 -1.3379E+00 -5.0455E-01 -5.0033E-01
 -2.6844E-01 -2.3775E-01
 Non-SCF case, kpt   21 (  0.45000  0.10000  0.00000), residuals and eigenvalues=
  7.92E-13  3.13E-13  4.64E-13  6.95E-13  6.67E-13  4.81E-13  3.60E-09  3.23E-07
 -2.2918E+00 -1.3482E+00 -1.3400E+00 -1.3384E+00 -5.0357E-01 -4.9970E-01
 -2.6549E-01 -2.3957E-01
 Non-SCF case, kpt   22 (  0.43333  0.13333  0.00000), residuals and eigenvalues=
  7.34E-13  2.62E-13  6.62E-13  5.06E-13  3.62E-13  4.24E-13  1.77E-08  5.96E-07
 -2.2917E+00 -1.3479E+00 -1.3399E+00 -1.3391E+00 -5.0229E-01 -4.9889E-01
 -2.6145E-01 -2.4205E-01
 Non-SCF case, kpt   23 (  0.41667  0.16667  0.00000), residuals and eigenvalues=
  4.06E-13  4.27E-13  9.15E-13  8.07E-13  6.15E-13  8.65E-13  2.14E-09  3.80E-08
 -2.2917E+00 -1.3474E+00 -1.3399E+00 -1.3398E+00 -5.0080E-01 -4.9795E-01
 -2.5642E-01 -2.4503E-01
 Non-SCF case, kpt   24 (  0.40000  0.20000  0.00000), residuals and eigenvalues=
  9.57E-13  3.08E-13  9.96E-13  7.66E-13  5.40E-13  8.52E-13  4.93E-08  2.66E-08
 -2.2917E+00 -1.3469E+00 -1.3406E+00 -1.3398E+00 -4.9923E-01 -4.9697E-01
 -2.5053E-01 -2.4822E-01
 Non-SCF case, kpt   25 (  0.38333  0.23333  0.00000), residuals and eigenvalues=
  3.25E-13  9.52E-13  3.76E-13  4.26E-13  2.77E-13  3.28E-13  5.14E-08  1.72E-07
 -2.2916E+00 -1.3464E+00 -1.3415E+00 -1.3397E+00 -4.9771E-01 -4.9605E-01
 -2.5129E-01 -2.4398E-01
 Non-SCF case, kpt   26 (  0.36667  0.26667  0.00000), residuals and eigenvalues=
  7.68E-13  3.89E-13  2.72E-13  7.44E-13  8.84E-13  8.35E-13  9.42E-09  3.80E-08
 -2.2916E+00 -1.3458E+00 -1.3424E+00 -1.3397E+00 -4.9641E-01 -4.9527E-01
 -2.5385E-01 -2.3709E-01
 Non-SCF case, kpt   27 (  0.35000  0.30000  0.00000), residuals and eigenvalues=
  4.16E-13  3.88E-13  2.52E-13  5.03E-13  5.29E-13  5.13E-13  5.22E-09  3.42E-07
 -2.2916E+00 -1.3453E+00 -1.3431E+00 -1.3397E+00 -4.9549E-01 -4.9474E-01
 -2.5559E-01 -2.3071E-01
 Non-SCF case, kpt   28 (  0.33333  0.33333  0.00000), residuals and eigenvalues=
  6.55E-13  4.93E-13  2.98E-13  4.33E-13  2.54E-13  5.62E-13  9.47E-09  4.12E-06
 -2.2916E+00 -1.3450E+00 -1.3435E+00 -1.3397E+00 -4.9515E-01 -4.9454E-01
 -2.5621E-01 -2.2754E-01
 Non-SCF case, kpt   29 (  0.35000  0.35000  0.02500), residuals and eigenvalues=
  9.10E-13  7.08E-13  5.32E-13  4.58E-13  2.91E-13  9.88E-13  3.32E-08  1.85E-06
 -2.2916E+00 -1.3453E+00 -1.3431E+00 -1.3397E+00 -4.9549E-01 -4.9474E-01
 -2.5559E-01 -2.3071E-01
 Non-SCF case, kpt   30 (  0.36667  0.36667  0.05000), residuals and eigenvalues=
  6.47E-13  4.03E-13  5.41E-13  2.88E-13  5.42E-13  6.32E-13  6.65E-09  7.35E-08
 -2.2916E+00 -1.3458E+00 -1.3424E+00 -1.3397E+00 -4.9641E-01 -4.9527E-01
 -2.5385E-01 -2.3709E-01
 Non-SCF case, kpt   31 (  0.38333  0.38333  0.07500), residuals and eigenvalues=
  6.68E-13  9.93E-13  3.49E-13  6.70E-13  3.79E-13  5.90E-13  6.03E-08  7.32E-08
 -2.2916E+00 -1.3464E+00 -1.3415E+00 -1.3397E+00 -4.9771E-01 -4.9605E-01
 -2.5129E-01 -2.4398E-01
 Non-SCF case, kpt   32 (  0.40000  0.40000  0.10000), residuals and eigenvalues=
  6.34E-13  1.85E-13  5.52E-13  4.98E-13  9.50E-13  6.29E-13  2.18E-08  1.33E-07
 -2.2917E+00 -1.3470E+00 -1.3406E+00 -1.3398E+00 -4.9923E-01 -4.9697E-01
 -2.5053E-01 -2.4822E-01
 Non-SCF case, kpt   33 (  0.41667  0.41667  0.12500), residuals and eigenvalues=
  6.77E-13  5.69E-13  7.09E-13  8.99E-13  6.53E-13  2.70E-13  6.83E-09  1.79E-07
 -2.2917E+00 -1.3474E+00 -1.3399E+00 -1.3398E+00 -5.0080E-01 -4.9795E-01
 -2.5642E-01 -2.4503E-01
 Non-SCF case, kpt   34 (  0.43333  0.43333  0.15000), residuals and eigenvalues=
  5.87E-13  6.46E-13  8.16E-13  6.99E-13  7.28E-13  6.32E-13  5.20E-09  3.70E-08
 -2.2917E+00 -1.3479E+00 -1.3399E+00 -1.3391E+00 -5.0229E-01 -4.9889E-01
 -2.6145E-01 -2.4205E-01
 Non-SCF case, kpt   35 (  0.45000  0.45000  0.17500), residuals and eigenvalues=
  4.08E-13  4.21E-13  4.98E-13  2.81E-13  7.21E-13  5.21E-13  1.84E-09  1.02E-06
 -2.2918E+00 -1.3482E+00 -1.3400E+00 -1.3384E+00 -5.0357E-01 -4.9970E-01
 -2.6549E-01 -2.3957E-01
 Non-SCF case, kpt   36 (  0.46667  0.46667  0.20000), residuals and eigenvalues=
  8.77E-13  4.24E-13  9.44E-13  6.65E-13  4.52E-13  9.20E-13  8.91E-10  4.16E-07
 -2.2918E+00 -1.3484E+00 -1.3400E+00 -1.3379E+00 -5.0455E-01 -5.0033E-01
 -2.6844E-01 -2.3776E-01
 Non-SCF case, kpt   37 (  0.48333  0.48333  0.22500), residuals and eigenvalues=
  6.90E-13  2.25E-13  3.60E-13  5.62E-13  9.36E-13  9.22E-13  2.89E-09  1.78E-07
 -2.2918E+00 -1.3486E+00 -1.3400E+00 -1.3376E+00 -5.0517E-01 -5.0073E-01
 -2.7024E-01 -2.3667E-01
 Non-SCF case, kpt   38 (  0.50000  0.50000  0.25000), residuals and eigenvalues=
  5.45E-13  4.47E-13  2.68E-13  8.25E-13  8.83E-13  6.41E-13  3.76E-09  2.25E-06
 -2.2918E+00 -1.3486E+00 -1.3400E+00 -1.3375E+00 -5.0537E-01 -5.0086E-01
 -2.7085E-01 -2.3630E-01
 Non-SCF case, kpt   39 (  0.51667  0.51667  0.27500), residuals and eigenvalues=
  7.77E-13  1.73E-13  2.58E-13  4.44E-13  5.86E-13  8.77E-13  9.52E-09  5.63E-06
 -2.2918E+00 -1.3486E+00 -1.3400E+00 -1.3376E+00 -5.0517E-01 -5.0073E-01
 -2.7024E-01 -2.3665E-01
 Non-SCF case, kpt   40 (  0.53333  0.53333  0.30000), residuals and eigenvalues=
  5.68E-13  4.28E-13  3.50E-13  8.46E-13  4.36E-13  5.00E-13  2.03E-09  7.64E-07
 -2.2918E+00 -1.3484E+00 -1.3400E+00 -1.3379E+00 -5.0455E-01 -5.0033E-01
 -2.6844E-01 -2.3776E-01
 Non-SCF case, kpt   41 (  0.55000  0.55000  0.32500), residuals and eigenvalues=
  3.28E-13  2.50E-13  5.12E-13  3.87E-13  5.12E-13  7.73E-13  2.11E-08  8.39E-07
 -2.2918E+00 -1.3482E+00 -1.3400E+00 -1.3384E+00 -5.0357E-01 -4.9970E-01
 -2.6549E-01 -2.3957E-01
 Non-SCF case, kpt   42 (  0.56667  0.56667  0.35000), residuals and eigenvalues=
  4.19E-13  6.38E-13  2.77E-13  6.33E-13  8.25E-13  5.62E-13  3.52E-09  1.30E-07
 -2.2917E+00 -1.3479E+00 -1.3399E+00 -1.3390E+00 -5.0229E-01 -4.9889E-01
 -2.6145E-01 -2.4205E-01
 Non-SCF case, kpt   43 (  0.58333  0.58333  0.37500), residuals and eigenvalues=
  6.66E-13  3.88E-13  2.39E-13  9.30E-13  4.59E-13  6.59E-13  5.80E-09  5.09E-09
 -2.2917E+00 -1.3474E+00 -1.3399E+00 -1.3398E+00 -5.0080E-01 -4.9795E-01
 -2.5642E-01 -2.4503E-01
 Non-SCF case, kpt   44 (  0.60000  0.60000  0.40000), residuals and eigenvalues=
  6.70E-13  2.19E-13  9.60E-13  7.81E-13  8.01E-13  9.91E-13  6.56E-08  4.48E-08
 -2.2917E+00 -1.3470E+00 -1.3406E+00 -1.3398E+00 -4.9923E-01 -4.9697E-01
 -2.5053E-01 -2.4822E-01
 Non-SCF case, kpt   45 (  0.61667  0.61667  0.42500), residuals and eigenvalues=
  6.55E-13  2.65E-13  4.67E-13  2.75E-13  7.24E-13  3.23E-13  8.93E-08  2.30E-08
 -2.2916E+00 -1.3464E+00 -1.3415E+00 -1.3397E+00 -4.9771E-01 -4.9605E-01
 -2.5129E-01 -2.4398E-01
 Non-SCF case, kpt   46 (  0.63333  0.63333  0.45000), residuals and eigenvalues=
  6.18E-13  4.85E-13  8.92E-13  9.14E-13  8.68E-13  5.10E-13  3.14E-09  1.89E-07
 -2.2916E+00 -1.3458E+00 -1.3424E+00 -1.3397E+00 -4.9641E-01 -4.9527E-01
 -2.5385E-01 -2.3709E-01
 Non-SCF case, kpt   47 (  0.65000  0.65000  0.47500), residuals and eigenvalues=
  6.97E-13  3.30E-13  9.86E-13  8.64E-13  7.21E-13  8.47E-13  9.13E-09  1.38E-06
 -2.2916E+00 -1.3453E+00 -1.3431E+00 -1.3397E+00 -4.9549E-01 -4.9474E-01
 -2.5559E-01 -2.3071E-01
 Non-SCF case, kpt   48 (  0.66667  0.66667  0.50000), residuals and eigenvalues=
  3.08E-13  3.39E-13  3.97E-13  7.07E-13  4.87E-13  2.37E-13  2.23E-08  1.35E-05
 -2.2916E+00 -1.3450E+00 -1.3434E+00 -1.3397E+00 -4.9515E-01 -4.9454E-01
 -2.5621E-01 -2.2752E-01
 Non-SCF case, kpt   49 (  0.68333  0.68333  0.52500), residuals and eigenvalues=
  8.08E-13  4.50E-13  5.29E-13  7.95E-13  5.21E-13  7.25E-13  1.54E-08  2.50E-06
 -2.2916E+00 -1.3453E+00 -1.3431E+00 -1.3397E+00 -4.9554E-01 -4.9476E-01
 -2.5553E-01 -2.3053E-01
 Non-SCF case, kpt   50 (  0.70000  0.70000  0.55000), residuals and eigenvalues=
  7.94E-13  3.74E-13  6.45E-13  2.72E-13  9.50E-13  9.71E-13  1.09E-08  6.38E-08
 -2.2916E+00 -1.3456E+00 -1.3425E+00 -1.3397E+00 -4.9682E-01 -4.9542E-01
 -2.5340E-01 -2.3591E-01
 Non-SCF case, kpt   51 (  0.71667  0.71667  0.57500), residuals and eigenvalues=
  7.42E-13  3.89E-13  9.33E-13  5.89E-13  7.95E-13  9.59E-13  9.12E-08  5.37E-08
 -2.2917E+00 -1.3459E+00 -1.3418E+00 -1.3398E+00 -4.9907E-01 -4.9655E-01
 -2.4977E-01 -2.4065E-01
 Non-SCF case, kpt   52 (  0.73333  0.73333  0.60000), residuals and eigenvalues=
  8.26E-13  9.09E-13  4.86E-13  6.15E-13  5.19E-13  8.12E-13  7.40E-09  1.88E-09
 -2.2917E+00 -1.3460E+00 -1.3410E+00 -1.3399E+00 -5.0232E-01 -4.9813E-01
 -2.4464E-01 -2.4390E-01
 Non-SCF case, kpt   53 (  0.75000  0.75000  0.62500), residuals and eigenvalues=
  8.47E-13  3.07E-13  6.85E-13  7.96E-13  5.71E-13  9.99E-13  1.53E-09  2.29E-09
 -2.2918E+00 -1.3460E+00 -1.3403E+00 -1.3400E+00 -5.0653E-01 -5.0011E-01
 -2.4546E-01 -2.3809E-01
 Non-SCF case, kpt   54 (  0.76667  0.76667  0.65000), residuals and eigenvalues=
  7.60E-13  2.32E-13  2.21E-13  7.16E-13  7.63E-13  7.41E-13  1.05E-09  1.25E-07
 -2.2919E+00 -1.3457E+00 -1.3402E+00 -1.3396E+00 -5.1157E-01 -5.0244E-01
 -2.4540E-01 -2.3026E-01
 Non-SCF case, kpt   55 (  0.78333  0.78333  0.67500), residuals and eigenvalues=
  6.92E-13  2.76E-13  5.72E-13  8.07E-13  9.63E-13  6.45E-13  1.14E-08  3.86E-06
 -2.2920E+00 -1.3452E+00 -1.3404E+00 -1.3389E+00 -5.1730E-01 -5.0503E-01
 -2.4398E-01 -2.2133E-01
 Non-SCF case, kpt   56 (  0.80000  0.80000  0.70000), residuals and eigenvalues=
  9.87E-13  1.62E-13  4.72E-13  8.64E-13  5.88E-13  9.03E-13  4.48E-09  1.00E-05
 -2.2921E+00 -1.3445E+00 -1.3406E+00 -1.3382E+00 -5.2352E-01 -5.0781E-01
 -2.4161E-01 -2.1157E-01
 Non-SCF case, kpt   57 (  0.81667  0.81667  0.72500), residuals and eigenvalues=
  7.37E-13  4.67E-13  3.03E-13  3.53E-13  4.67E-13  2.59E-13  2.27E-08  5.00E-05
 -2.2922E+00 -1.3436E+00 -1.3409E+00 -1.3376E+00 -5.3002E-01 -5.1070E-01
 -2.3899E-01 -2.0081E-01
 Non-SCF case, kpt   58 (  0.83333  0.83333  0.75000), residuals and eigenvalues=
  5.86E-13  2.90E-13  7.73E-13  8.14E-13  5.37E-13  4.47E-13  8.77E-08  2.78E-05
 -2.2923E+00 -1.3426E+00 -1.3411E+00 -1.3370E+00 -5.3662E-01 -5.1361E-01
 -2.3714E-01 -1.9673E-01
 Non-SCF case, kpt   59 (  0.85000  0.85000  0.77500), residuals and eigenvalues=
  3.91E-13  4.66E-13  2.86E-13  3.20E-13  8.47E-13  8.40E-13  1.79E-07  4.23E-04
 -2.2925E+00 -1.3415E+00 -1.3414E+00 -1.3365E+00 -5.4312E-01 -5.1647E-01
 -2.3714E-01 -1.9345E-01
 Non-SCF case, kpt   60 (  0.86667  0.86667  0.80000), residuals and eigenvalues=
  9.34E-13  7.34E-13  6.00E-13  9.47E-13  9.10E-13  5.16E-13  5.62E-09  2.89E-05
 -2.2926E+00 -1.3417E+00 -1.3404E+00 -1.3360E+00 -5.4936E-01 -5.1922E-01
 -2.3931E-01 -1.9184E-01
 Non-SCF case, kpt   61 (  0.88333  0.88333  0.82500), residuals and eigenvalues=
  8.96E-13  8.63E-13  9.80E-13  6.71E-13  5.46E-13  7.12E-13  3.91E-09  3.14E-04
 -2.2928E+00 -1.3419E+00 -1.3392E+00 -1.3356E+00 -5.5520E-01 -5.2179E-01
 -2.4307E-01 -1.8406E-01
 Non-SCF case, kpt   62 (  0.90000  0.90000  0.85000), residuals and eigenvalues=
  4.05E-13  5.56E-13  2.65E-13  7.93E-13  6.89E-13  4.62E-13  3.93E-10  2.01E-05
 -2.2929E+00 -1.3422E+00 -1.3380E+00 -1.3352E+00 -5.6051E-01 -5.2413E-01
 -2.4756E-01 -1.7879E-01
 Non-SCF case, kpt   63 (  0.91667  0.91667  0.87500), residuals and eigenvalues=
  7.50E-13  2.48E-13  3.38E-13  4.01E-13  9.59E-13  3.64E-13  2.20E-11  8.37E-05
 -2.2930E+00 -1.3424E+00 -1.3370E+00 -1.3349E+00 -5.6519E-01 -5.2619E-01
 -2.5211E-01 -1.7090E-01
 Non-SCF case, kpt   64 (  0.93333  0.93333  0.90000), residuals and eigenvalues=
  8.86E-13  8.23E-13  3.56E-13  4.96E-13  6.06E-13  2.87E-13  2.57E-11  5.52E-05
 -2.2931E+00 -1.3426E+00 -1.3360E+00 -1.3346E+00 -5.6914E-01 -5.2792E-01
 -2.5629E-01 -1.6386E-01
 Non-SCF case, kpt   65 (  0.95000  0.95000  0.92500), residuals and eigenvalues=
  3.86E-13  5.15E-13  7.51E-13  2.42E-13  6.92E-13  4.36E-13  1.83E-11  5.87E-05
 -2.2932E+00 -1.3427E+00 -1.3352E+00 -1.3344E+00 -5.7229E-01 -5.2931E-01
 -2.5980E-01 -1.5731E-01
 Non-SCF case, kpt   66 (  0.96667  0.96667  0.95000), residuals and eigenvalues=
  5.70E-13  7.66E-13  9.98E-13  5.82E-13  7.67E-13  7.40E-13  5.71E-11  2.87E-04
 -2.2932E+00 -1.3429E+00 -1.3347E+00 -1.3343E+00 -5.7458E-01 -5.3032E-01
 -2.6243E-01 -1.4913E-01
 Non-SCF case, kpt   67 (  0.98333  0.98333  0.97500), residuals and eigenvalues=
  8.51E-13  7.26E-13  6.40E-13  4.86E-13  9.36E-13  8.06E-13  8.64E-11  1.95E-04
 -2.2933E+00 -1.3429E+00 -1.3343E+00 -1.3342E+00 -5.7597E-01 -5.3093E-01
 -2.6406E-01 -1.4776E-01
 Non-SCF case, kpt   68 (  1.00000  1.00000  1.00000), residuals and eigenvalues=
  6.97E-13  8.30E-13  5.40E-13  6.05E-13  9.47E-13  3.02E-13  7.38E-13  2.46E-05
 -2.2933E+00 -1.3430E+00 -1.3342E+00 -1.3342E+00 -5.7643E-01 -5.3114E-01
 -2.6461E-01 -1.4815E-01
 

--- !ResultsGS
iteration_state: {dtset: 2, }
comment   : Summary of ground state results
lattice_vectors:
- [  2.9859563,  -5.1718280,   0.0000000, ]
- [  2.9859563,   5.1718280,   0.0000000, ]
- [  0.0000000,   0.0000000,  37.7945227, ]
lattice_lengths: [   5.97191,    5.97191,   37.79452, ]
lattice_angles: [ 90.000,  90.000, 120.000, ] # degrees, (23, 13, 12)
lattice_volume:   1.1673104E+03
convergence: {deltae:  0.000E+00, res2:  0.000E+00, residm:  9.993E-13, diffor:  0.000E+00, }
etotal    :  -9.23825392E+01
entropy   :   0.00000000E+00
fermie    :  -7.45630452E-02
cartesian_stress_tensor: null
pressure_GPa: null
xred      :
- [  3.3333E-01,   6.6667E-01,   0.0000E+00, Mo]
- [  6.6667E-01,   3.3333E-01,  -7.9250E-02,  S]
- [  6.6667E-01,   3.3333E-01,   7.9250E-02,  S]
cartesian_forces: null
force_length_stats: {min: null, max: null, mean: null, }
...

 Integrated electronic density in atomic spheres:
 ------------------------------------------------
 Atom  Sphere_radius  Integrated_density
    1        2.00000         10.53788721
    2        2.00000          3.92033587
    3        2.00000          3.92035778
================================================================================
 
 ----iterations are completed or convergence reached----
 
 Mean square residual over all n,k,spin=   60.454E-14; max=  99.929E-14
 reduced coordinates (array xred) for    3 atoms
       0.333333333333      0.666666666667      0.000000000000
       0.666666666667      0.333333333333     -0.079250000000
       0.666666666667      0.333333333333      0.079250000000
 
 cartesian coordinates (angstrom) at end:
    1      1.58010000000000     0.91227116034185     0.00000000000000
    2      1.58010000000000    -0.91227116034185    -1.58500000000000
    3      1.58010000000000    -0.91227116034185     1.58500000000000
 length scales=  5.971912525145  5.971912525145 37.794522657713 bohr
              =  3.160200000000  3.160200000000 20.000000000000 angstroms
 prteigrs : about to open file mos2_1o_DS2_EIG
 Eigenvalues (   eV  ) for nkpt=  68  k points:
 kpt#   1, nband=  8, wtk=  1.00000, kpt=  0.0000  0.0000  0.0000 (reduced coord)
 -62.40345  -36.54396  -36.30522  -36.30521  -15.68552  -14.45293   -7.20050   -4.01853
 kpt#   2, nband=  8, wtk=  1.00000, kpt=  0.0294  0.0000  0.0000 (reduced coord)
 -62.40314  -36.54306  -36.30898  -36.30630  -15.67235  -14.44712   -7.18491   -4.06075
 kpt#   3, nband=  8, wtk=  1.00000, kpt=  0.0588  0.0000  0.0000 (reduced coord)
 -62.40205  -36.54086  -36.31895  -36.30843  -15.63308  -14.42982   -7.13892   -4.13462
 kpt#   4, nband=  8, wtk=  1.00000, kpt=  0.0882  0.0000  0.0000 (reduced coord)
 -62.40035  -36.53753  -36.33532  -36.31220  -15.56846  -14.40137   -7.06478   -3.94287
 kpt#   5, nband=  8, wtk=  1.00000, kpt=  0.1176  0.0000  0.0000 (reduced coord)
 -62.39808  -36.53312  -36.35757  -36.31726  -15.47969  -14.36232   -6.96669   -4.44551
 kpt#   6, nband=  8, wtk=  1.00000, kpt=  0.1471  0.0000  0.0000 (reduced coord)
 -62.39526  -36.52775  -36.38453  -36.32335  -15.36850  -14.31344   -6.85150   -4.67063
 kpt#   7, nband=  8, wtk=  1.00000, kpt=  0.1765  0.0000  0.0000 (reduced coord)
 -62.39203  -36.52146  -36.41570  -36.33035  -15.23715  -14.25578   -6.73010   -4.88300
 kpt#   8, nband=  8, wtk=  1.00000, kpt=  0.2059  0.0000  0.0000 (reduced coord)
 -62.38853  -36.51456  -36.45001  -36.33809  -15.08842  -14.19068   -6.61962   -5.09786
 kpt#   9, nband=  8, wtk=  1.00000, kpt=  0.2353  0.0000  0.0000 (reduced coord)
 -62.38489  -36.50747  -36.48615  -36.34639  -14.92573  -14.11979   -6.54539   -5.27010
 kpt#  10, nband=  8, wtk=  1.00000, kpt=  0.2647  0.0000  0.0000 (reduced coord)
 -62.38118  -36.52252  -36.50037  -36.35488  -14.75311  -14.04506   -6.53616   -5.38025
 kpt#  11, nband=  8, wtk=  1.00000, kpt=  0.2941  0.0000  0.0000 (reduced coord)
 -62.37747  -36.55794  -36.49304  -36.36310  -14.57543  -13.96878   -6.60380   -5.47156
 kpt#  12, nband=  8, wtk=  1.00000, kpt=  0.3235  0.0000  0.0000 (reduced coord)
 -62.37393  -36.59112  -36.48618  -36.37089  -14.39832  -13.89359   -6.72924   -5.71931
 kpt#  13, nband=  8, wtk=  1.00000, kpt=  0.3529  0.0000  0.0000 (reduced coord)
 -62.37072  -36.62125  -36.48001  -36.37799  -14.22844  -13.82242   -6.88112   -5.91996
 kpt#  14, nband=  8, wtk=  1.00000, kpt=  0.3824  0.0000  0.0000 (reduced coord)
 -62.36799  -36.64782  -36.47468  -36.38413  -14.07320  -13.75831   -7.03418   -6.09388
 kpt#  15, nband=  8, wtk=  1.00000, kpt=  0.4118  0.0000  0.0000 (reduced coord)
 -62.36572  -36.66935  -36.47005  -36.38916  -13.94059  -13.70437   -7.17076   -6.23638
 kpt#  16, nband=  8, wtk=  1.00000, kpt=  0.4412  0.0000  0.0000 (reduced coord)
 -62.36400  -36.68505  -36.46649  -36.39273  -13.83853  -13.66343   -7.27806   -6.34252
 kpt#  17, nband=  8, wtk=  1.00000, kpt=  0.4706  0.0000  0.0000 (reduced coord)
 -62.36295  -36.69475  -36.46433  -36.39487  -13.77403  -13.63784   -7.34654   -6.40812
 kpt#  18, nband=  8, wtk=  1.00000, kpt=  0.5000  0.0000  0.0000 (reduced coord)
 -62.36253  -36.69787  -36.46336  -36.39539  -13.75193  -13.62913   -7.37008   -6.42966
 kpt#  19, nband=  8, wtk=  1.00000, kpt=  0.4833  0.0333  0.0000 (reduced coord)
 -62.36255  -36.69670  -36.46361  -36.39875  -13.74624  -13.62545   -7.35364   -6.44009
 kpt#  20, nband=  8, wtk=  1.00000, kpt=  0.4667  0.0667  0.0000 (reduced coord)
 -62.36224  -36.69276  -36.46299  -36.40698  -13.72948  -13.61466   -7.30466   -6.46963
 kpt#  21, nband=  8, wtk=  1.00000, kpt=  0.4500  0.1000  0.0000 (reduced coord)
 -62.36176  -36.68628  -36.46207  -36.42010  -13.70278  -13.59755   -7.22427   -6.51907
 kpt#  22, nband=  8, wtk=  1.00000, kpt=  0.4333  0.1333  0.0000 (reduced coord)
 -62.36109  -36.67723  -36.46077  -36.43745  -13.66795  -13.57538   -7.11432   -6.58652
 kpt#  23, nband=  8, wtk=  1.00000, kpt=  0.4167  0.1667  0.0000 (reduced coord)
 -62.36024  -36.66551  -36.45917  -36.45778  -13.62750  -13.54990   -6.97742   -6.66755
 kpt#  24, nband=  8, wtk=  1.00000, kpt=  0.4000  0.2000  0.0000 (reduced coord)
 -62.35949  -36.65231  -36.48093  -36.45771  -13.58470  -13.52330   -6.81726   -6.75449
 kpt#  25, nband=  8, wtk=  1.00000, kpt=  0.3833  0.2333  0.0000 (reduced coord)
 -62.35870  -36.63746  -36.50466  -36.45616  -13.54335  -13.49808   -6.83783   -6.63892
 kpt#  26, nband=  8, wtk=  1.00000, kpt=  0.3667  0.2667  0.0000 (reduced coord)
 -62.35809  -36.62187  -36.52793  -36.45497  -13.50787  -13.47692   -6.90765   -6.45155
 kpt#  27, nband=  8, wtk=  1.00000, kpt=  0.3500  0.3000  0.0000 (reduced coord)
 -62.35769  -36.60719  -36.54780  -36.45441  -13.48302  -13.46249   -6.95486   -6.27794
 kpt#  28, nband=  8, wtk=  1.00000, kpt=  0.3333  0.3333  0.0000 (reduced coord)
 -62.35759  -36.60000  -36.55745  -36.45416  -13.47370  -13.45721   -6.97196   -6.19166
 kpt#  29, nband=  8, wtk=  1.00000, kpt=  0.3500  0.3500  0.0250 (reduced coord)
 -62.35767  -36.60718  -36.54778  -36.45428  -13.48302  -13.46249   -6.95486   -6.27786
 kpt#  30, nband=  8, wtk=  1.00000, kpt=  0.3667  0.3667  0.0500 (reduced coord)
 -62.35812  -36.62194  -36.52794  -36.45517  -13.50788  -13.47692   -6.90766   -6.45155
 kpt#  31, nband=  8, wtk=  1.00000, kpt=  0.3833  0.3833  0.0750 (reduced coord)
 -62.35873  -36.63754  -36.50472  -36.45632  -13.54336  -13.49808   -6.83784   -6.63893
 kpt#  32, nband=  8, wtk=  1.00000, kpt=  0.4000  0.4000  0.1000 (reduced coord)
 -62.35950  -36.65241  -36.48088  -36.45777  -13.58470  -13.52330   -6.81726   -6.75449
 kpt#  33, nband=  8, wtk=  1.00000, kpt=  0.4167  0.4167  0.1250 (reduced coord)
 -62.36030  -36.66571  -36.45945  -36.45788  -13.62751  -13.54990   -6.97743   -6.66756
 kpt#  34, nband=  8, wtk=  1.00000, kpt=  0.4333  0.4333  0.1500 (reduced coord)
 -62.36111  -36.67715  -36.46098  -36.43751  -13.66795  -13.57538   -7.11431   -6.58656
 kpt#  35, nband=  8, wtk=  1.00000, kpt=  0.4500  0.4500  0.1750 (reduced coord)
 -62.36174  -36.68616  -36.46208  -36.42004  -13.70278  -13.59755   -7.22426   -6.51903
 kpt#  36, nband=  8, wtk=  1.00000, kpt=  0.4667  0.4667  0.2000 (reduced coord)
 -62.36224  -36.69269  -36.46307  -36.40699  -13.72948  -13.61466   -7.30465   -6.46969
 kpt#  37, nband=  8, wtk=  1.00000, kpt=  0.4833  0.4833  0.2250 (reduced coord)
 -62.36254  -36.69670  -36.46361  -36.39863  -13.74624  -13.62545   -7.35363   -6.44010
 kpt#  38, nband=  8, wtk=  1.00000, kpt=  0.5000  0.5000  0.2500 (reduced coord)
 -62.36264  -36.69805  -36.46394  -36.39565  -13.75195  -13.62913   -7.37009   -6.43017
 kpt#  39, nband=  8, wtk=  1.00000, kpt=  0.5167  0.5167  0.2750 (reduced coord)
 -62.36257  -36.69677  -36.46382  -36.39870  -13.74624  -13.62545   -7.35364   -6.43968
 kpt#  40, nband=  8, wtk=  1.00000, kpt=  0.5333  0.5333  0.3000 (reduced coord)
 -62.36224  -36.69265  -36.46305  -36.40699  -13.72948  -13.61466   -7.30465   -6.46966
 kpt#  41, nband=  8, wtk=  1.00000, kpt=  0.5500  0.5500  0.3250 (reduced coord)
 -62.36172  -36.68613  -36.46199  -36.41997  -13.70277  -13.59754   -7.22426   -6.51904
 kpt#  42, nband=  8, wtk=  1.00000, kpt=  0.5667  0.5667  0.3500 (reduced coord)
 -62.36107  -36.67708  -36.46086  -36.43725  -13.66794  -13.57537   -7.11430   -6.58655
 kpt#  43, nband=  8, wtk=  1.00000, kpt=  0.5833  0.5833  0.3750 (reduced coord)
 -62.36031  -36.66583  -36.45938  -36.45794  -13.62751  -13.54990   -6.97745   -6.66757
 kpt#  44, nband=  8, wtk=  1.00000, kpt=  0.6000  0.6000  0.4000 (reduced coord)
 -62.35952  -36.65263  -36.48088  -36.45775  -13.58471  -13.52330   -6.81727   -6.75450
 kpt#  45, nband=  8, wtk=  1.00000, kpt=  0.6167  0.6167  0.4250 (reduced coord)
 -62.35876  -36.63771  -36.50484  -36.45629  -13.54337  -13.49808   -6.83784   -6.63894
 kpt#  46, nband=  8, wtk=  1.00000, kpt=  0.6333  0.6333  0.4500 (reduced coord)
 -62.35810  -36.62191  -36.52791  -36.45502  -13.50787  -13.47692   -6.90765   -6.45155
 kpt#  47, nband=  8, wtk=  1.00000, kpt=  0.6500  0.6500  0.4750 (reduced coord)
 -62.35768  -36.60729  -36.54789  -36.45413  -13.48303  -13.46249   -6.95486   -6.27786
 kpt#  48, nband=  8, wtk=  1.00000, kpt=  0.6667  0.6667  0.5000 (reduced coord)
 -62.35748  -36.59963  -36.55708  -36.45377  -13.47368  -13.45721   -6.97195   -6.19121
 kpt#  49, nband=  8, wtk=  1.00000, kpt=  0.6833  0.6833  0.5250 (reduced coord)
 -62.35769  -36.60623  -36.54856  -36.45420  -13.48446  -13.46302   -6.95332   -6.27299
 kpt#  50, nband=  8, wtk=  1.00000, kpt=  0.7000  0.7000  0.5500 (reduced coord)
 -62.35827  -36.61682  -36.53119  -36.45545  -13.51921  -13.48110   -6.89538   -6.41934
 kpt#  51, nband=  8, wtk=  1.00000, kpt=  0.7167  0.7167  0.5750 (reduced coord)
 -62.35927  -36.62461  -36.51155  -36.45741  -13.58044  -13.51182   -6.79651   -6.54842
 kpt#  52, nband=  8, wtk=  1.00000, kpt=  0.7333  0.7333  0.6000 (reduced coord)
 -62.36073  -36.62779  -36.49132  -36.46026  -13.66887  -13.55473   -6.65701   -6.63687
 kpt#  53, nband=  8, wtk=  1.00000, kpt=  0.7500  0.7500  0.6250 (reduced coord)
 -62.36263  -36.62543  -36.47102  -36.46399  -13.78326  -13.60868   -6.67938   -6.47882
 kpt#  54, nband=  8, wtk=  1.00000, kpt=  0.7667  0.7667  0.6500 (reduced coord)
 -62.36502  -36.61763  -36.46853  -36.45139  -13.92060  -13.67197   -6.67781   -6.26562
 kpt#  55, nband=  8, wtk=  1.00000, kpt=  0.7833  0.7833  0.6750 (reduced coord)
 -62.36782  -36.60419  -36.47403  -36.43243  -14.07646  -13.74255   -6.63895   -6.02272
 kpt#  56, nband=  8, wtk=  1.00000, kpt=  0.8000  0.8000  0.7000 (reduced coord)
 -62.37093  -36.58540  -36.48004  -36.41424  -14.24563  -13.81823   -6.57456   -5.75724
 kpt#  57, nband=  8, wtk=  1.00000, kpt=  0.8167  0.8167  0.7250 (reduced coord)
 -62.37433  -36.56177  -36.48679  -36.39720  -14.42260  -13.89678   -6.50338   -5.46445
 kpt#  58, nband=  8, wtk=  1.00000, kpt=  0.8333  0.8333  0.7500 (reduced coord)
 -62.37793  -36.53466  -36.49380  -36.38130  -14.60205  -13.97603   -6.45303   -5.35326
 kpt#  59, nband=  8, wtk=  1.00000, kpt=  0.8500  0.8500  0.7750 (reduced coord)
 -62.38168  -36.50477  -36.50113  -36.36693  -14.77898  -14.05397   -6.45280   -5.26409
 kpt#  60, nband=  8, wtk=  1.00000, kpt=  0.8667  0.8667  0.8000 (reduced coord)
 -62.38538  -36.50852  -36.47292  -36.35375  -14.94888  -14.12873   -6.51204   -5.22027
 kpt#  61, nband=  8, wtk=  1.00000, kpt=  0.8833  0.8833  0.8250 (reduced coord)
 -62.38897  -36.51550  -36.44056  -36.34224  -15.10780  -14.19865   -6.61432   -5.00861
 kpt#  62, nband=  8, wtk=  1.00000, kpt=  0.9000  0.9000  0.8500 (reduced coord)
 -62.39241  -36.52223  -36.40936  -36.33246  -15.25235  -14.26225   -6.73641   -4.86514
 kpt#  63, nband=  8, wtk=  1.00000, kpt=  0.9167  0.9167  0.8750 (reduced coord)
 -62.39554  -36.52833  -36.38046  -36.32415  -15.37957  -14.31824   -6.86034   -4.65040
 kpt#  64, nband=  8, wtk=  1.00000, kpt=  0.9333  0.9333  0.9000 (reduced coord)
 -62.39825  -36.53347  -36.35507  -36.31736  -15.48703  -14.36552   -6.97406   -4.45881
 kpt#  65, nband=  8, wtk=  1.00000, kpt=  0.9500  0.9500  0.9250 (reduced coord)
 -62.40044  -36.53776  -36.33396  -36.31203  -15.57268  -14.40323   -7.06947   -4.28051
 kpt#  66, nband=  8, wtk=  1.00000, kpt=  0.9667  0.9667  0.9500 (reduced coord)
 -62.40212  -36.54110  -36.31849  -36.30827  -15.63499  -14.43067   -7.14114   -4.05807
 kpt#  67, nband=  8, wtk=  1.00000, kpt=  0.9833  0.9833  0.9750 (reduced coord)
 -62.40316  -36.54316  -36.30889  -36.30619  -15.67283  -14.44733   -7.18549   -4.02084
 kpt#  68, nband=  8, wtk=  1.00000, kpt=  1.0000  1.0000  1.0000 (reduced coord)
 -62.40345  -36.54396  -36.30522  -36.30521  -15.68552  -14.45293   -7.20050   -4.03144
 
== END DATASET(S) ==============================================================
================================================================================
  
 -outvars: echo values of variables after computation  --------
            acell      5.9719125251E+00  5.9719125251E+00  3.7794522658E+01 Bohr
              amu      9.59400000E+01  3.20660000E+01
      chksymbreak           0
             ecut      3.00000000E+01 Hartree
           enunit1          0
           enunit2          1
           etotal1    -9.2382539192E+01
            fcart1     5.0962323604E-07 -7.6950615723E-07 -2.5166812911E-05
                      -6.6294322636E-08  7.8065683035E-07  6.7191237485E-03
                      -4.4332891340E-07 -1.1150673118E-08 -6.6939569356E-03
-          fftalg         512
           getden1          0
           getden2         -1
             iscf1          7
             iscf2         -2
           istwfk1       4    0    5    0    0    0    0    8    0    9
           istwfk2       2    0    0    0    0    0    0    0    0    0
                         0    0    0    0    0    0    0    3    0    0
                         0    0    0    0    0    0    0    0    0    0
                         0    0    0    0    0    0    0    0    0    0
                         0    0    0    0    0    0    0    0    0    0
                       outvar_i_n : Printing only first  50 k-points.
              ixc          11
           jdtset        1    2
              kpt1     0.00000000E+00  0.00000000E+00  5.00000000E-01
                       2.50000000E-01  0.00000000E+00  5.00000000E-01
                       5.00000000E-01  0.00000000E+00  5.00000000E-01
                       0.00000000E+00  2.50000000E-01  5.00000000E-01
                       2.50000000E-01  2.50000000E-01  5.00000000E-01
                       5.00000000E-01  2.50000000E-01  5.00000000E-01
                      -2.50000000E-01  2.50000000E-01  5.00000000E-01
                       0.00000000E+00  5.00000000E-01  5.00000000E-01
                       2.50000000E-01  5.00000000E-01  5.00000000E-01
                       5.00000000E-01  5.00000000E-01  5.00000000E-01
              kpt2     0.00000000E+00  0.00000000E+00  0.00000000E+00
                       2.94117647E-02  0.00000000E+00  0.00000000E+00
                       5.88235294E-02  0.00000000E+00  0.00000000E+00
                       8.82352941E-02  0.00000000E+00  0.00000000E+00
                       1.17647059E-01  0.00000000E+00  0.00000000E+00
                       1.47058824E-01  0.00000000E+00  0.00000000E+00
                       1.76470588E-01  0.00000000E+00  0.00000000E+00
                       2.05882353E-01  0.00000000E+00  0.00000000E+00
                       2.35294118E-01  0.00000000E+00  0.00000000E+00
                       2.64705882E-01  0.00000000E+00  0.00000000E+00
                       2.94117647E-01  0.00000000E+00  0.00000000E+00
                       3.23529412E-01  0.00000000E+00  0.00000000E+00
                       3.52941176E-01  0.00000000E+00  0.00000000E+00
                       3.82352941E-01  0.00000000E+00  0.00000000E+00
                       4.11764706E-01  0.00000000E+00  0.00000000E+00
                       4.41176471E-01  0.00000000E+00  0.00000000E+00
                       4.70588235E-01  0.00000000E+00  0.00000000E+00
                       5.00000000E-01  0.00000000E+00  0.00000000E+00
                       4.83333333E-01  3.33333333E-02  0.00000000E+00
                       4.66666667E-01  6.66666667E-02  0.00000000E+00
                       4.50000000E-01  1.00000000E-01  0.00000000E+00
                       4.33333333E-01  1.33333333E-01  0.00000000E+00
                       4.16666667E-01  1.66666667E-01  0.00000000E+00
                       4.00000000E-01  2.00000000E-01  0.00000000E+00
                       3.83333333E-01  2.33333333E-01  0.00000000E+00
                       3.66666667E-01  2.66666667E-01  0.00000000E+00
                       3.50000000E-01  3.00000000E-01  0.00000000E+00
                       3.33333333E-01  3.33333333E-01  0.00000000E+00
                       3.50000000E-01  3.50000000E-01  2.50000000E-02
                       3.66666667E-01  3.66666667E-01  5.00000000E-02
                       3.83333333E-01  3.83333333E-01  7.50000000E-02
                       4.00000000E-01  4.00000000E-01  1.00000000E-01
                       4.16666667E-01  4.16666667E-01  1.25000000E-01
                       4.33333333E-01  4.33333333E-01  1.50000000E-01
                       4.50000000E-01  4.50000000E-01  1.75000000E-01
                       4.66666667E-01  4.66666667E-01  2.00000000E-01
                       4.83333333E-01  4.83333333E-01  2.25000000E-01
                       5.00000000E-01  5.00000000E-01  2.50000000E-01
                       5.16666667E-01  5.16666667E-01  2.75000000E-01
                       5.33333333E-01  5.33333333E-01  3.00000000E-01
                       5.50000000E-01  5.50000000E-01  3.25000000E-01
                       5.66666667E-01  5.66666667E-01  3.50000000E-01
                       5.83333333E-01  5.83333333E-01  3.75000000E-01
                       6.00000000E-01  6.00000000E-01  4.00000000E-01
                       6.16666667E-01  6.16666667E-01  4.25000000E-01
                       6.33333333E-01  6.33333333E-01  4.50000000E-01
                       6.50000000E-01  6.50000000E-01  4.75000000E-01
                       6.66666667E-01  6.66666667E-01  5.00000000E-01
                       6.83333333E-01  6.83333333E-01  5.25000000E-01
                       7.00000000E-01  7.00000000E-01  5.50000000E-01
                       outvar_i_n : Printing only first  50 k-points.
           kptopt1          1
           kptopt2         -3
         kptrlatt        4    0    0      0    4    0      0    0    1
          kptrlen1     2.38876501E+01
          kptrlen2     3.00000000E+01
P           mkmem1         10
P           mkmem2         68
            natom           3
            nband1         14
            nband2          8
           nbdbuf1          0
           nbdbuf2          2
           ndtset           2
           ndivsm1          0
           ndivsm2         10
            ngfft          30      30     192
             nkpt1         10
             nkpt2         68
            nstep          20
             nsym           1
           ntypat           2
              occ      2.000000  2.000000  2.000000  2.000000  2.000000  2.000000
                       2.000000  2.000000  2.000000  2.000000  2.000000  2.000000
                       2.000000  0.000000
            rprim      5.0000000000E-01 -8.6602540378E-01  0.0000000000E+00
                       5.0000000000E-01  8.6602540378E-01  0.0000000000E+00
                       0.0000000000E+00  0.0000000000E+00  1.0000000000E+00
           shiftk1     0.00000000E+00  0.00000000E+00  5.00000000E-01
           shiftk2     5.00000000E-01  5.00000000E-01  5.00000000E-01
          spgroup           1
           strten1     9.2595281479E-06  9.2531383005E-06  3.7180769211E-05
                       1.7448146648E-09 -3.4040341932E-10 -1.9496412790E-09
           toldfe1     1.00000000E-07 Hartree
           toldfe2     0.00000000E+00 Hartree
           tolwfr1     0.00000000E+00
           tolwfr2     1.00000000E-12
            typat      1  2  2
              wtk1       0.06250    0.12500    0.06250    0.12500    0.12500    0.12500
                         0.12500    0.06250    0.12500    0.06250
              wtk2       1.00000    1.00000    1.00000    1.00000    1.00000    1.00000
                         1.00000    1.00000    1.00000    1.00000    1.00000    1.00000
                         1.00000    1.00000    1.00000    1.00000    1.00000    1.00000
                         1.00000    1.00000    1.00000    1.00000    1.00000    1.00000
                         1.00000    1.00000    1.00000    1.00000    1.00000    1.00000
                         1.00000    1.00000    1.00000    1.00000    1.00000    1.00000
                         1.00000    1.00000    1.00000    1.00000    1.00000    1.00000
                         1.00000    1.00000    1.00000    1.00000    1.00000    1.00000
                         1.00000    1.00000
                       outvars : Printing only first  50 k-points.
           xangst      1.5801000000E+00  9.1227116034E-01  0.0000000000E+00
                       1.5801000000E+00 -9.1227116034E-01 -1.5850000000E+00
                       1.5801000000E+00 -9.1227116034E-01  1.5850000000E+00
            xcart      2.9859562626E+00  1.7239426520E+00  0.0000000000E+00
                       2.9859562626E+00 -1.7239426520E+00 -2.9952159206E+00
                       2.9859562626E+00 -1.7239426520E+00  2.9952159206E+00
             xred      3.3333333333E-01  6.6666666667E-01  0.0000000000E+00
                       6.6666666667E-01  3.3333333333E-01 -7.9250000000E-02
                       6.6666666667E-01  3.3333333333E-01  7.9250000000E-02
            znucl       42.00000   16.00000
 
================================================================================


- Timing analysis has been suppressed with timopt=0



================================================================================

 Suggested references for the acknowledgment of ABINIT usage.

 The users of ABINIT have little formal obligations with respect to the ABINIT group
 (those specified in the GNU General Public License, http://www.gnu.org/copyleft/gpl.txt).
 However, it is common practice in the scientific literature,
 to acknowledge the efforts of people that have made the research possible.
 In this spirit, please find below suggested citations of work written by ABINIT developers,
 corresponding to implementations inside of ABINIT that you have used in the present run.
 Note also that it will be of great value to readers of publications presenting these results,
 to read papers enabling them to understand the theoretical formalism and details
 of the ABINIT implementation.
 For information on why they are suggested, see also https://docs.abinit.org/theory/acknowledgments.
-
- [1] The Abinit project: Impact, environment and recent developments.
- Computer Phys. Comm. 248, 107042 (2020).
- X.Gonze, B. Amadon, G. Antonius, F.Arnardi, L.Baguet, J.-M.Beuken,
- J.Bieder, F.Bottin, J.Bouchet, E.Bousquet, N.Brouwer, F.Bruneval,
- G.Brunin, T.Cavignac, J.-B. Charraud, Wei Chen, M.Cote, S.Cottenier,
- J.Denier, G.Geneste, Ph.Ghosez, M.Giantomassi, Y.Gillet, O.Gingras,
- D.R.Hamann, G.Hautier, Xu He, N.Helbig, N.Holzwarth, Y.Jia, F.Jollet,
- W.Lafargue-Dit-Hauret, K.Lejaeghere, M.A.L.Marques, A.Martin, C.Martins,
- H.P.C. Miranda, F.Naccarato, K. Persson, G.Petretto, V.Planes, Y.Pouillon,
- S.Prokhorenko, F.Ricci, G.-M.Rignanese, A.H.Romero, M.M.Schmitt, M.Torrent,
- M.J.van Setten, B.Van Troeye, M.J.Verstraete, G.Zerah and J.W.Zwanzig
- Comment: the fifth generic paper describing the ABINIT project.
- Note that a version of this paper, that is not formatted for Computer Phys. Comm. 
- is available at https://www.abinit.org/sites/default/files/ABINIT20.pdf .
- The licence allows the authors to put it on the Web.
- DOI and bibtex: see https://docs.abinit.org/theory/bibliography/#gonze2020
-
- [2] Optimized norm-conserving Vanderbilt pseudopotentials.
- D.R. Hamann, Phys. Rev. B 88, 085117 (2013).
- Comment: Some pseudopotential generated using the ONCVPSP code were used.
- DOI and bibtex: see https://docs.abinit.org/theory/bibliography/#hamann2013
-
- [3] ABINIT: Overview, and focus on selected capabilities
- J. Chem. Phys. 152, 124102 (2020).
- A. Romero, D.C. Allan, B. Amadon, G. Antonius, T. Applencourt, L.Baguet,
- J.Bieder, F.Bottin, J.Bouchet, E.Bousquet, F.Bruneval,
- G.Brunin, D.Caliste, M.Cote,
- J.Denier, C. Dreyer, Ph.Ghosez, M.Giantomassi, Y.Gillet, O.Gingras,
- D.R.Hamann, G.Hautier, F.Jollet, G. Jomard,
- A.Martin, 
- H.P.C. Miranda, F.Naccarato, G.Petretto, N.A. Pike, V.Planes,
- S.Prokhorenko, T. Rangel, F.Ricci, G.-M.Rignanese, M.Royo, M.Stengel, M.Torrent,
- M.J.van Setten, B.Van Troeye, M.J.Verstraete, J.Wiktor, J.W.Zwanziger, and X.Gonze.
- Comment: a global overview of ABINIT, with focus on selected capabilities .
- Note that a version of this paper, that is not formatted for J. Chem. Phys 
- is available at https://www.abinit.org/sites/default/files/ABINIT20_JPC.pdf .
- The licence allows the authors to put it on the Web.
- DOI and bibtex: see https://docs.abinit.org/theory/bibliography/#romero2020
-
- [4] Recent developments in the ABINIT software package.
- Computer Phys. Comm. 205, 106 (2016).
- X.Gonze, F.Jollet, F.Abreu Araujo, D.Adams, B.Amadon, T.Applencourt,
- C.Audouze, J.-M.Beuken, J.Bieder, A.Bokhanchuk, E.Bousquet, F.Bruneval
- D.Caliste, M.Cote, F.Dahm, F.Da Pieve, M.Delaveau, M.Di Gennaro,
- B.Dorado, C.Espejo, G.Geneste, L.Genovese, A.Gerossier, M.Giantomassi,
- Y.Gillet, D.R.Hamann, L.He, G.Jomard, J.Laflamme Janssen, S.Le Roux,
- A.Levitt, A.Lherbier, F.Liu, I.Lukacevic, A.Martin, C.Martins,
- M.J.T.Oliveira, S.Ponce, Y.Pouillon, T.Rangel, G.-M.Rignanese,
- A.H.Romero, B.Rousseau, O.Rubel, A.A.Shukri, M.Stankovski, M.Torrent,
- M.J.Van Setten, B.Van Troeye, M.J.Verstraete, D.Waroquier, J.Wiktor,
- B.Xu, A.Zhou, J.W.Zwanziger.
- Comment: the fourth generic paper describing the ABINIT project.
- Note that a version of this paper, that is not formatted for Computer Phys. Comm. 
- is available at https://www.abinit.org/sites/default/files/ABINIT16.pdf .
- The licence allows the authors to put it on the Web.
- DOI and bibtex: see https://docs.abinit.org/theory/bibliography/#gonze2016
-
- And optionally:
-
- [5] ABINIT: First-principles approach of materials and nanosystem properties.
- Computer Phys. Comm. 180, 2582-2615 (2009).
- X. Gonze, B. Amadon, P.-M. Anglade, J.-M. Beuken, F. Bottin, P. Boulanger, F. Bruneval,
- D. Caliste, R. Caracas, M. Cote, T. Deutsch, L. Genovese, Ph. Ghosez, M. Giantomassi
- S. Goedecker, D.R. Hamann, P. Hermet, F. Jollet, G. Jomard, S. Leroux, M. Mancini, S. Mazevet,
- M.J.T. Oliveira, G. Onida, Y. Pouillon, T. Rangel, G.-M. Rignanese, D. Sangalli, R. Shaltaf,
- M. Torrent, M.J. Verstraete, G. Zerah, J.W. Zwanziger
- Comment: the third generic paper describing the ABINIT project.
- Note that a version of this paper, that is not formatted for Computer Phys. Comm. 
- is available at https://www.abinit.org/sites/default/files/ABINIT_CPC_v10.pdf .
- The licence allows the authors to put it on the Web.
- DOI and bibtex: see https://docs.abinit.org/theory/bibliography/#gonze2009
-
- Proc.   0 individual time (sec): cpu=        131.4  wall=        142.6
 
================================================================================
 
 Calculation completed.
.Delivered   4 WARNINGs and  10 COMMENTs to log file.
+Overall time at end (sec) : cpu=        131.4  wall=        142.6
