
.Version 9.10.3 of ABINIT 
.(MPI version, prepared for a x86_64_linux_intel2021.6 computer) 

.Copyright (C) 1998-2022 ABINIT group . 
 ABINIT comes with ABSOLUTELY NO WARRANTY.
 It is free software, and you are welcome to redistribute it
 under certain conditions (GNU General Public License,
 see ~abinit/COPYING or http://www.gnu.org/copyleft/gpl.txt).

 ABINIT is a project of the Universite Catholique de Louvain,
 Corning Inc. and other collaborators, see ~abinit/doc/developers/contributors.txt .
 Please read https://docs.abinit.org/theory/acknowledgments for suggested
 acknowledgments of the ABINIT effort.
 For more information, see https://www.abinit.org .

.Starting date : Fri  9 May 2025.
- ( at 13h54 )
  
- input  file    -> mos2_exp_final.abi
- output file    -> mos2_exp_final.abo
- root for input  files -> mos2_exp_finali
- root for output files -> mos2_exp_finalo
 
 
 DATASET    1 : space group P1 (#  1); Bravais aP (primitive triclinic)
================================================================================
 Values of the parameters that define the memory need for DATASET  1.
     intxc =       0    ionmov =       2      iscf =       7    lmnmax =       6
     lnmax =       6     mgfft =     320  mpssoang =       3    mqgrid =   15218
     natom =       3  nloc_mem =       1    nspden =       1   nspinor =       1
    nsppol =       1      nsym =       1    n1xccc =    2501    ntypat =       2
    occopt =       1   xclevel =       2
-    mband =          14        mffmem =           1         mkmem =           1
       mpw =       39948          nfft =      800000          nkpt =          34
================================================================================
P This job should need less than                     251.676 Mbytes of memory.
  Rough estimation (10% accuracy) of disk space for files :
_ WF disk file :    290.152 Mbytes ; DEN or POT disk file :      6.106 Mbytes.
================================================================================
 
 
 DATASET    2 : space group P1 (#  1); Bravais aP (primitive triclinic)
================================================================================
 Values of the parameters that define the memory need for DATASET  2.
     intxc =       0    ionmov =       2      iscf =      -2    lmnmax =       6
     lnmax =       6     mgfft =     320  mpssoang =       3    mqgrid =   15218
     natom =       3  nloc_mem =       1    nspden =       1   nspinor =       1
    nsppol =       1      nsym =       1    n1xccc =    2501    ntypat =       2
    occopt =       1   xclevel =       2
-    mband =          34        mffmem =           1         mkmem =           2
       mpw =       39982          nfft =      800000          nkpt =         143
================================================================================
P This job should need less than                     188.234 Mbytes of memory.
  Rough estimation (10% accuracy) of disk space for files :
_ WF disk file :   2966.196 Mbytes ; DEN or POT disk file :      6.106 Mbytes.
================================================================================
 
--------------------------------------------------------------------------------
------------- Echo of variables that govern the present computation ------------
--------------------------------------------------------------------------------
-
- outvars: echo of selected default values                                      
-   iomode0 =  0 , fftalg0 =512 , wfoptalg0 =  0
-
- outvars: echo of global parameters not present in the input file              
-  max_nthreads =    0
-
 -outvars: echo values of preprocessed input variables --------
            acell      5.9719125251E+00  5.9719125251E+00  3.7794522658E+01 Bohr
              amu      9.59400000E+01  3.20660000E+01
      chksymbreak           0
             ecut      8.00000000E+01 Hartree
           enunit1          0
           enunit2          1
-          fftalg         512
           getden1          0
           getden2         -1
           ionmov           2
             iscf1          7
             iscf2         -2
           istwfk1       4    0    0    0    5    0    0    0    0    0
                         0    0    0    0    0    0    0    0    0    0
                         0    0    0    0    0    0    0    0    0    8
                         0    0    0    9
           istwfk2       2    0    0    0    0    0    0    0    0    0
                         0    0    0    0    0    0    0    0    0    0
                         0    0    0    0    0    0    0    0    0    0
                         0    0    0    0    0    0    0    0    0    0
                         0    0    0    0    0    0    0    0    0    0
                       outvar_i_n : Printing only first  50 k-points.
              ixc          11
           jdtset        1    2
              kpt1     0.00000000E+00  0.00000000E+00  5.00000000E-01
                       1.25000000E-01  0.00000000E+00  5.00000000E-01
                       2.50000000E-01  0.00000000E+00  5.00000000E-01
                       3.75000000E-01  0.00000000E+00  5.00000000E-01
                       5.00000000E-01  0.00000000E+00  5.00000000E-01
                       0.00000000E+00  1.25000000E-01  5.00000000E-01
                       1.25000000E-01  1.25000000E-01  5.00000000E-01
                       2.50000000E-01  1.25000000E-01  5.00000000E-01
                       3.75000000E-01  1.25000000E-01  5.00000000E-01
                       5.00000000E-01  1.25000000E-01  5.00000000E-01
                      -3.75000000E-01  1.25000000E-01  5.00000000E-01
                      -2.50000000E-01  1.25000000E-01  5.00000000E-01
                      -1.25000000E-01  1.25000000E-01  5.00000000E-01
                       0.00000000E+00  2.50000000E-01  5.00000000E-01
                       1.25000000E-01  2.50000000E-01  5.00000000E-01
                       2.50000000E-01  2.50000000E-01  5.00000000E-01
                       3.75000000E-01  2.50000000E-01  5.00000000E-01
                       5.00000000E-01  2.50000000E-01  5.00000000E-01
                      -3.75000000E-01  2.50000000E-01  5.00000000E-01
                      -2.50000000E-01  2.50000000E-01  5.00000000E-01
                      -1.25000000E-01  2.50000000E-01  5.00000000E-01
                       0.00000000E+00  3.75000000E-01  5.00000000E-01
                       1.25000000E-01  3.75000000E-01  5.00000000E-01
                       2.50000000E-01  3.75000000E-01  5.00000000E-01
                       3.75000000E-01  3.75000000E-01  5.00000000E-01
                       5.00000000E-01  3.75000000E-01  5.00000000E-01
                      -3.75000000E-01  3.75000000E-01  5.00000000E-01
                      -2.50000000E-01  3.75000000E-01  5.00000000E-01
                      -1.25000000E-01  3.75000000E-01  5.00000000E-01
                       0.00000000E+00  5.00000000E-01  5.00000000E-01
                       1.25000000E-01  5.00000000E-01  5.00000000E-01
                       2.50000000E-01  5.00000000E-01  5.00000000E-01
                       3.75000000E-01  5.00000000E-01  5.00000000E-01
                       5.00000000E-01  5.00000000E-01  5.00000000E-01
              kpt2     0.00000000E+00  0.00000000E+00  0.00000000E+00
                       9.61538462E-03  0.00000000E+00  0.00000000E+00
                       1.92307692E-02  0.00000000E+00  0.00000000E+00
                       2.88461538E-02  0.00000000E+00  0.00000000E+00
                       3.84615385E-02  0.00000000E+00  0.00000000E+00
                       4.80769231E-02  0.00000000E+00  0.00000000E+00
                       5.76923077E-02  0.00000000E+00  0.00000000E+00
                       6.73076923E-02  0.00000000E+00  0.00000000E+00
                       7.69230769E-02  0.00000000E+00  0.00000000E+00
                       8.65384615E-02  0.00000000E+00  0.00000000E+00
                       9.61538462E-02  0.00000000E+00  0.00000000E+00
                       1.05769231E-01  0.00000000E+00  0.00000000E+00
                       1.15384615E-01  0.00000000E+00  0.00000000E+00
                       1.25000000E-01  0.00000000E+00  0.00000000E+00
                       1.34615385E-01  0.00000000E+00  0.00000000E+00
                       1.44230769E-01  0.00000000E+00  0.00000000E+00
                       1.53846154E-01  0.00000000E+00  0.00000000E+00
                       1.63461538E-01  0.00000000E+00  0.00000000E+00
                       1.73076923E-01  0.00000000E+00  0.00000000E+00
                       1.82692308E-01  0.00000000E+00  0.00000000E+00
                       1.92307692E-01  0.00000000E+00  0.00000000E+00
                       2.01923077E-01  0.00000000E+00  0.00000000E+00
                       2.11538462E-01  0.00000000E+00  0.00000000E+00
                       2.21153846E-01  0.00000000E+00  0.00000000E+00
                       2.30769231E-01  0.00000000E+00  0.00000000E+00
                       2.40384615E-01  0.00000000E+00  0.00000000E+00
                       2.50000000E-01  0.00000000E+00  0.00000000E+00
                       2.59615385E-01  0.00000000E+00  0.00000000E+00
                       2.69230769E-01  0.00000000E+00  0.00000000E+00
                       2.78846154E-01  0.00000000E+00  0.00000000E+00
                       2.88461538E-01  0.00000000E+00  0.00000000E+00
                       2.98076923E-01  0.00000000E+00  0.00000000E+00
                       3.07692308E-01  0.00000000E+00  0.00000000E+00
                       3.17307692E-01  0.00000000E+00  0.00000000E+00
                       3.26923077E-01  0.00000000E+00  0.00000000E+00
                       3.36538462E-01  0.00000000E+00  0.00000000E+00
                       3.46153846E-01  0.00000000E+00  0.00000000E+00
                       3.55769231E-01  0.00000000E+00  0.00000000E+00
                       3.65384615E-01  0.00000000E+00  0.00000000E+00
                       3.75000000E-01  0.00000000E+00  0.00000000E+00
                       3.84615385E-01  0.00000000E+00  0.00000000E+00
                       3.94230769E-01  0.00000000E+00  0.00000000E+00
                       4.03846154E-01  0.00000000E+00  0.00000000E+00
                       4.13461538E-01  0.00000000E+00  0.00000000E+00
                       4.23076923E-01  0.00000000E+00  0.00000000E+00
                       4.32692308E-01  0.00000000E+00  0.00000000E+00
                       4.42307692E-01  0.00000000E+00  0.00000000E+00
                       4.51923077E-01  0.00000000E+00  0.00000000E+00
                       4.61538462E-01  0.00000000E+00  0.00000000E+00
                       4.71153846E-01  0.00000000E+00  0.00000000E+00
                       outvar_i_n : Printing only first  50 k-points.
           kptopt1          1
           kptopt2         -3
         kptrlatt        8    0    0      0    8    0      0    0    1
          kptrlen1     4.77753002E+01
          kptrlen2     3.00000000E+01
P           mkmem1          1
P           mkmem2          2
            natom           3
            nband1         14
            nband2         34
           nbdbuf1          0
           nbdbuf2          2
           ndtset           2
           ndivsm1          0
           ndivsm2         30
            ngfft          50      50     320
             nkpt1         34
             nkpt2        143
            nstep          20
             nsym           1
            ntime          10
           ntypat           2
              occ      2.000000  2.000000  2.000000  2.000000  2.000000  2.000000
                       2.000000  2.000000  2.000000  2.000000  2.000000  2.000000
                       2.000000  0.000000
        optforces           1
            rprim      5.0000000000E-01 -8.6602540378E-01  0.0000000000E+00
                       5.0000000000E-01  8.6602540378E-01  0.0000000000E+00
                       0.0000000000E+00  0.0000000000E+00  1.0000000000E+00
           shiftk1     0.00000000E+00  0.00000000E+00  5.00000000E-01
           shiftk2     5.00000000E-01  5.00000000E-01  5.00000000E-01
          spgroup           1
           toldfe1     1.00000000E-10 Hartree
           toldfe2     0.00000000E+00 Hartree
           tolmxf      5.00000000E-04
           tolwfr1     0.00000000E+00
           tolwfr2     1.00000000E-12
            typat      1  2  2
              wtk1       0.01563    0.03125    0.03125    0.03125    0.01563    0.03125
                         0.03125    0.03125    0.03125    0.03125    0.03125    0.03125
                         0.03125    0.03125    0.03125    0.03125    0.03125    0.03125
                         0.03125    0.03125    0.03125    0.03125    0.03125    0.03125
                         0.03125    0.03125    0.03125    0.03125    0.03125    0.01563
                         0.03125    0.03125    0.03125    0.01563
              wtk2       1.00000    1.00000    1.00000    1.00000    1.00000    1.00000
                         1.00000    1.00000    1.00000    1.00000    1.00000    1.00000
                         1.00000    1.00000    1.00000    1.00000    1.00000    1.00000
                         1.00000    1.00000    1.00000    1.00000    1.00000    1.00000
                         1.00000    1.00000    1.00000    1.00000    1.00000    1.00000
                         1.00000    1.00000    1.00000    1.00000    1.00000    1.00000
                         1.00000    1.00000    1.00000    1.00000    1.00000    1.00000
                         1.00000    1.00000    1.00000    1.00000    1.00000    1.00000
                         1.00000    1.00000
                       outvars : Printing only first  50 k-points.
           xangst      1.5801000000E+00  9.1227116034E-01  0.0000000000E+00
                       1.5801000000E+00 -9.1227116034E-01 -1.5850000000E+00
                       1.5801000000E+00 -9.1227116034E-01  1.5850000000E+00
            xcart      2.9859562626E+00  1.7239426520E+00  0.0000000000E+00
                       2.9859562626E+00 -1.7239426520E+00 -2.9952159206E+00
                       2.9859562626E+00 -1.7239426520E+00  2.9952159206E+00
             xred      3.3333333333E-01  6.6666666667E-01  0.0000000000E+00
                       6.6666666667E-01  3.3333333333E-01 -7.9250000000E-02
                       6.6666666667E-01  3.3333333333E-01  7.9250000000E-02
            znucl       42.00000   16.00000
 
================================================================================
 
 chkinp: Checking input parameters for consistency, jdtset=   1.
 
 chkinp: Checking input parameters for consistency, jdtset=   2.
 
================================================================================
== DATASET  1 ==================================================================
-   mpi_nproc: 80, omp_nthreads: -1 (-1 if OMP is not activated)
-    --> not optimal distribution: autoparal keyword recommended in input file <--
 

--- !DatasetInfo
iteration_state: {dtset: 1, }
dimensions: {natom: 3, nkpt: 34, mband: 14, nsppol: 1, nspinor: 1, nspden: 1, mpw: 39948, }
cutoff_energies: {ecut:  80.0, pawecutdg:  -1.0, }
electrons: {nelect:   2.60000000E+01, charge:   0.00000000E+00, occopt:   1.00000000E+00, tsmear:   1.00000000E-02, }
meta: {optdriver: 0, ionmov: 2, optcell: 0, iscf: 7, paral_kgb: 0, }
...

 Exchange-correlation functional for the present dataset will be:
  GGA: Perdew-Burke-Ernzerhof functional - ixc=11
 Citation for XC functional:
  J.P.Perdew, K.Burke, M.Ernzerhof, PRL 77, 3865 (1996)
 
 Real(R)+Recip(G) space primitive vectors, cartesian coordinates (Bohr,Bohr^-1):
 R(1)=  2.9859563 -5.1718280  0.0000000  G(1)=  0.1674505 -0.0966776  0.0000000
 R(2)=  2.9859563  5.1718280  0.0000000  G(2)=  0.1674505  0.0966776  0.0000000
 R(3)=  0.0000000  0.0000000 37.7945227  G(3)=  0.0000000  0.0000000  0.0264589
 Unit cell volume ucvol=  1.1673104E+03 bohr^3
 Angles (23,13,12)=  9.00000000E+01  9.00000000E+01  1.20000000E+02 degrees
 
 getcut: wavevector=  0.0000  0.0000  0.0000  ngfft=  50  50 320
         ecut(hartree)=     80.000   => boxcut(ratio)=   2.07999
 
--- Pseudopotential description ------------------------------------------------
- pspini: atom type   1  psp file is ../persudo/Mo.psp8
- pspatm: opening atomic psp file    ../persudo/Mo.psp8
- Mo    ONCVPSP-3.2.3.1  r_core=   1.45541   1.45541   1.35488
- 42.00000  14.00000    170510                znucl, zion, pspdat
    8   11    2    4       600   0.00000      pspcod,pspxc,lmax,lloc,mmax,r2well
    5.99000000000000    3.00000000000000    0.00000000000000   rchrg,fchrg,qchrg
     nproj     2     2     2
     extension_switch     1
  pspatm : epsatm=   15.95693586
         --- l  ekb(1:nproj) -->
             0   13.833287    1.350687
             1    8.015347    1.134034
             2    2.765699    0.969071
 pspatm: atomic psp has been read  and splines computed
 
- pspini: atom type   2  psp file is ../persudo/S.psp8
- pspatm: opening atomic psp file    ../persudo/S.psp8
- S     ONCVPSP-4.0.1  r_core=   1.45687   1.45687   1.45687
- 16.00000   6.00000    220131                znucl, zion, pspdat
    8   11    2    4       600   0.00000      pspcod,pspxc,lmax,lloc,mmax,r2well
    5.99000000000000    6.00000000000000    0.00000000000000   rchrg,fchrg,qchrg
     nproj     2     2     2
     extension_switch     1
  pspatm : epsatm=    9.04179351
         --- l  ekb(1:nproj) -->
             0    6.774234    0.542270
             1    3.022426    0.737017
             2   -5.033160   -1.531047
 pspatm: atomic psp has been read  and splines computed
 
   8.85053595E+02                                ecore*ucvol(ha*bohr**3)
--------------------------------------------------------------------------------
 
_setup2: Arith. and geom. avg. npw (full set) are   39895.813   39895.766
 
================================================================================
 
=== [ionmov= 2] Broyden-Fletcher-Goldfard-Shanno method (forces)            
================================================================================
 
--- Iteration: ( 1/10) Internal Cycle: (1/1)
--------------------------------------------------------------------------------
 
---SELF-CONSISTENT-FIELD CONVERGENCE--------------------------------------------

--- !BeginCycle
iteration_state: {dtset: 1, itime: 1, icycle: 1, }
solver: {iscf: 7, nstep: 20, nline: 4, wfoptalg: 0, }
tolerances: {toldfe: 1.00E-10, }
...
 
     iter   Etot(hartree)      deltaE(h)  residm     vres2    diffor    maxfor
 ETOT  1  -91.710228003995    -9.171E+01 2.449E-01 2.272E+04 9.852E-02 9.852E-02
 ETOT  2  -89.122379979944     2.588E+00 4.533E-02 1.844E+05 4.934E-01 3.956E-01
 ETOT  3  -92.337827353653    -3.215E+00 3.673E-02 3.876E+03 3.484E-01 4.834E-02
 ETOT  4  -92.364511256723    -2.668E-02 1.280E-02 2.516E+03 4.570E-03 5.196E-02
 ETOT  5  -92.374331337028    -9.820E-03 3.202E-03 1.505E+03 1.529E-02 3.671E-02
 ETOT  6  -92.377889450882    -3.558E-03 3.191E-03 1.067E+03 7.846E-03 2.893E-02
 ETOT  7  -92.381276012155    -3.387E-03 1.216E-03 5.918E+02 9.866E-03 1.920E-02
 ETOT  8  -92.382947521535    -1.672E-03 1.940E-03 2.825E+02 8.704E-03 1.049E-02
 ETOT  9  -92.383172188289    -2.247E-04 9.431E-04 2.146E+02 1.463E-03 9.074E-03
 ETOT 10  -92.383301742239    -1.296E-04 1.425E-03 1.579E+02 1.524E-03 7.550E-03
 ETOT 11  -92.383369075465    -6.733E-05 7.424E-04 1.156E+02 9.780E-04 6.572E-03
 ETOT 12  -92.383391045039    -2.197E-05 9.585E-04 9.466E+01 5.302E-04 6.051E-03
 ETOT 13  -92.383383643722     7.401E-06 5.979E-04 9.722E+01 3.406E-04 6.382E-03
 ETOT 14  -92.383386763502    -3.120E-06 5.477E-04 8.572E+01 6.010E-05 6.327E-03
 ETOT 15  -92.383396487334    -9.724E-06 4.003E-04 7.521E+01 2.974E-04 6.029E-03
 ETOT 16  -92.383398194113    -1.707E-06 3.235E-04 7.138E+01 4.559E-05 5.984E-03
 ETOT 17  -92.383403003263    -4.809E-06 2.478E-04 6.267E+01 1.771E-04 5.807E-03
 ETOT 18  -92.383407110298    -4.107E-06 2.107E-04 5.338E+01 1.779E-04 5.629E-03
 ETOT 19  -92.383409511276    -2.401E-06 1.579E-04 4.645E+01 1.022E-04 5.526E-03
 ETOT 20  -92.383411005523    -1.494E-06 1.297E-04 4.228E+01 9.397E-05 5.432E-03
 
 Cartesian components of stress tensor (hartree/bohr^3)
  sigma(1 1)= -1.36688084E-05  sigma(3 2)=  1.69407019E-10
  sigma(2 2)= -1.36700985E-05  sigma(3 1)= -2.42339000E-10
  sigma(3 3)=  1.87025964E-05  sigma(2 1)=  1.54586100E-09
 
 
 scprqt:  WARNING -
  nstep=   20 was not enough SCF cycles to converge;
  maximum energy difference=  1.494E-06 exceeds toldfe=  1.000E-10
 

--- !ResultsGS
iteration_state: {dtset: 1, itime: 1, icycle: 1, }
comment   : Summary of ground state results
lattice_vectors:
- [  2.9859563,  -5.1718280,   0.0000000, ]
- [  2.9859563,   5.1718280,   0.0000000, ]
- [  0.0000000,   0.0000000,  37.7945227, ]
lattice_lengths: [   5.97191,    5.97191,   37.79452, ]
lattice_angles: [ 90.000,  90.000, 120.000, ] # degrees, (23, 13, 12)
lattice_volume:   1.1673104E+03
convergence: {deltae: -1.494E-06, res2:  4.228E+01, residm:  1.297E-04, diffor:  9.397E-05, }
etotal    :  -9.23834110E+01
entropy   :   0.00000000E+00
fermie    :  -7.30520568E-02
cartesian_stress_tensor: # hartree/bohr^3
- [ -1.36688084E-05,   1.54586100E-09,  -2.42339000E-10, ]
- [  1.54586100E-09,  -1.36700985E-05,   1.69407019E-10, ]
- [ -2.42339000E-10,   1.69407019E-10,   1.87025964E-05, ]
pressure_GPa:   8.4696E-02
xred      :
- [  3.3333E-01,   6.6667E-01,   0.0000E+00, Mo]
- [  6.6667E-01,   3.3333E-01,  -7.9250E-02,  S]
- [  6.6667E-01,   3.3333E-01,   7.9250E-02,  S]
cartesian_forces: # hartree/bohr
- [ -3.64286800E-08,   5.07150038E-07,   5.79697127E-06, ]
- [ -1.47980588E-07,  -9.66201029E-08,   5.42664717E-03, ]
- [  1.84409268E-07,  -4.10529935E-07,  -5.43244414E-03, ]
force_length_stats: {min:   5.81922711E-06, max:   5.43244416E-03, mean:   3.62163685E-03, }
...

 Integrated electronic density in atomic spheres:
 ------------------------------------------------
 Atom  Sphere_radius  Integrated_density
    1        2.00000         10.49491658
    2        2.00000          3.92305094
    3        2.00000          3.92305247
 
---OUTPUT-----------------------------------------------------------------------
 
 Cartesian coordinates (xcart) [bohr]
  2.98595626257260E+00  1.72394265197591E+00  0.00000000000000E+00
  2.98595626257260E+00 -1.72394265197591E+00 -2.99521592062374E+00
  2.98595626257260E+00 -1.72394265197591E+00  2.99521592062374E+00
 Reduced coordinates (xred)
  3.33333333333333E-01  6.66666666666667E-01  0.00000000000000E+00
  6.66666666666667E-01  3.33333333333333E-01 -7.92500000000000E-02
  6.66666666666667E-01  3.33333333333333E-01  7.92500000000000E-02
 Cartesian forces (fcart) [Ha/bohr]; max,rms= 5.43244E-03 2.55951E-03 (free atoms)
 -3.64286800097174E-08  5.07150038256337E-07  5.79697127396820E-06
 -1.47980588453928E-07 -9.66201028885696E-08  5.42664716811750E-03
  1.84409268463645E-07 -4.10529935367767E-07 -5.43244413939147E-03
 Gradient of E wrt nuclear positions in reduced coordinates (gred)
  2.73166719091620E-06 -2.51411830049167E-06 -2.19093762160102E-04
 -5.78389843905323E-08  9.41566114056902E-07 -2.05097539350830E-01
 -2.67382820652567E-06  1.57255218643476E-06  2.05316633112990E-01
 Total energy (etotal) [Ha]= -9.23834110055233E+01
 
--- Iteration: ( 2/10) Internal Cycle: (1/1)
--------------------------------------------------------------------------------
 
---SELF-CONSISTENT-FIELD CONVERGENCE--------------------------------------------

--- !BeginCycle
iteration_state: {dtset: 1, itime: 2, icycle: 1, }
solver: {iscf: 7, nstep: 20, nline: 4, wfoptalg: 0, }
tolerances: {toldfe: 1.00E-10, }
...
 
     iter   Etot(hartree)      deltaE(h)  residm     vres2    diffor    maxfor
 ETOT  1  -92.383458809068    -9.238E+01 1.254E-04 7.615E+01 1.580E-04 5.309E-03
 ETOT  2  -92.383462676491    -3.867E-06 1.433E-04 2.202E-01 1.872E-03 3.438E-03
 ETOT  3  -92.383462465365     2.111E-07 1.014E-04 7.029E-01 6.843E-04 4.122E-03
 ETOT  4  -92.383462560467    -9.510E-08 1.561E-04 7.965E-01 4.216E-05 4.080E-03
 ETOT  5  -92.383462747150    -1.867E-07 1.109E-04 8.542E-01 2.249E-05 4.057E-03
 ETOT  6  -92.383462332722     4.144E-07 1.657E-04 9.999E-01 4.136E-05 4.099E-03
 ETOT  7  -92.383462553370    -2.206E-07 1.237E-04 1.241E+00 2.797E-05 4.071E-03
 ETOT  8  -92.383460323963     2.229E-06 1.711E-04 5.366E+01 4.109E-04 4.476E-03
 ETOT  9  -92.383462983511    -2.660E-06 1.326E-04 5.833E+01 3.082E-04 4.167E-03
 ETOT 10  -92.383463202199    -2.187E-07 1.690E-04 2.377E+01 6.876E-05 4.099E-03
 ETOT 11  -92.383463450427    -2.482E-07 1.382E-04 2.425E-01 1.690E-04 3.931E-03
 ETOT 12  -92.383463532248    -8.182E-08 1.606E-04 8.136E-01 1.249E-04 3.807E-03
 ETOT 13  -92.383462486509     1.046E-06 1.404E-04 3.226E-01 2.453E-04 4.051E-03
 ETOT 14  -92.383463429777    -9.433E-07 1.477E-04 7.291E-02 2.855E-04 3.765E-03
 ETOT 15  -92.383463489173    -5.940E-08 1.362E-04 1.534E-01 1.287E-04 3.894E-03
 ETOT 16  -92.383463517789    -2.862E-08 1.311E-04 4.107E-02 1.271E-05 3.881E-03
 ETOT 17  -92.383463540865    -2.308E-08 1.275E-04 4.576E-02 1.584E-05 3.865E-03
 ETOT 18  -92.383463511776     2.909E-08 1.133E-04 2.774E-02 2.183E-05 3.887E-03
 ETOT 19  -92.383463499691     1.209E-08 1.157E-04 2.301E-02 7.354E-06 3.894E-03
 ETOT 20  -92.383463546172    -4.648E-08 1.008E-04 1.286E-02 5.556E-05 3.838E-03
 
 Cartesian components of stress tensor (hartree/bohr^3)
  sigma(1 1)= -1.58382549E-05  sigma(3 2)= -5.79365195E-11
  sigma(2 2)= -1.58381782E-05  sigma(3 1)=  9.19347869E-11
  sigma(3 3)=  1.98876092E-05  sigma(2 1)= -1.81966954E-12
 
 
 scprqt:  WARNING -
  nstep=   20 was not enough SCF cycles to converge;
  maximum energy difference=  4.648E-08 exceeds toldfe=  1.000E-10
 

--- !ResultsGS
iteration_state: {dtset: 1, itime: 2, icycle: 1, }
comment   : Summary of ground state results
lattice_vectors:
- [  2.9859563,  -5.1718280,   0.0000000, ]
- [  2.9859563,   5.1718280,   0.0000000, ]
- [  0.0000000,   0.0000000,  37.7945227, ]
lattice_lengths: [   5.97191,    5.97191,   37.79452, ]
lattice_angles: [ 90.000,  90.000, 120.000, ] # degrees, (23, 13, 12)
lattice_volume:   1.1673104E+03
convergence: {deltae: -4.648E-08, res2:  1.286E-02, residm:  1.008E-04, diffor:  5.556E-05, }
etotal    :  -9.23834635E+01
entropy   :   0.00000000E+00
fermie    :  -6.55248871E-02
cartesian_stress_tensor: # hartree/bohr^3
- [ -1.58382549E-05,  -1.81966954E-12,   9.19347869E-11, ]
- [ -1.81966954E-12,  -1.58381782E-05,  -5.79365195E-11, ]
- [  9.19347869E-11,  -5.79365195E-11,   1.98876092E-05, ]
pressure_GPa:   1.1561E-01
xred      :
- [  3.3333E-01,   6.6667E-01,   1.5338E-07, Mo]
- [  6.6667E-01,   3.3333E-01,  -7.9106E-02,  S]
- [  6.6667E-01,   3.3333E-01,   7.9106E-02,  S]
cartesian_forces: # hartree/bohr
- [  1.72113092E-08,  -1.25107667E-07,  -4.46082540E-06, ]
- [ -5.87175610E-08,   2.44206524E-08,   3.83833012E-03, ]
- [  4.15062517E-08,   1.00687015E-07,  -3.83386929E-03, ]
force_length_stats: {min:   4.46261262E-06, max:   3.83833012E-03, mean:   2.55888734E-03, }
...

 Integrated electronic density in atomic spheres:
 ------------------------------------------------
 Atom  Sphere_radius  Integrated_density
    1        2.00000         10.49587826
    2        2.00000          3.92505769
    3        2.00000          3.92506247
 
---OUTPUT-----------------------------------------------------------------------
 
 Cartesian coordinates (xcart) [bohr]
  2.98595622614392E+00  1.72394315912594E+00  5.79697127396844E-06
  2.98595611459202E+00 -1.72394274859601E+00 -2.98978927345563E+00
  2.98595644698187E+00 -1.72394306250584E+00  2.98978347648435E+00
 Reduced coordinates (xred)
  3.33333278203274E-01  6.66666709596721E-01  1.53381253851752E-07
  6.66666651228238E-01  3.33333299212902E-01 -7.91064170999786E-02
  6.66666737235155E-01  3.33333324523710E-01  7.91062637187248E-02
 Cartesian forces (fcart) [Ha/bohr]; max,rms= 3.83833E-03 1.80836E-03 (free atoms)
  1.72113092291882E-08 -1.25107667078526E-07 -4.46082539639585E-06
 -5.87175609681244E-08  2.44206523571881E-08  3.83833011872623E-03
  4.15062517389361E-08  1.00687014721338E-07 -3.83386929332983E-03
 Gradient of E wrt nuclear positions in reduced coordinates (gred)
 -6.98427546677589E-07  5.95643113517652E-07  1.68594766516184E-04
  3.01627481458657E-07  4.90286563328622E-08 -1.45067854639980E-01
  3.96800065218931E-07 -6.44671769850514E-07  1.44899259873464E-01
 Total energy (etotal) [Ha]= -9.23834635461724E+01
 
 Difference of energy with previous step (new-old):
           Absolute (Ha)=-5.25406E-05
           Relative     =-5.68724E-07
 
--- Iteration: ( 3/10) Internal Cycle: (1/1)
--------------------------------------------------------------------------------
 
---SELF-CONSISTENT-FIELD CONVERGENCE--------------------------------------------

--- !BeginCycle
iteration_state: {dtset: 1, itime: 3, icycle: 1, }
solver: {iscf: 7, nstep: 20, nline: 4, wfoptalg: 0, }
tolerances: {toldfe: 1.00E-10, }
...
 
     iter   Etot(hartree)      deltaE(h)  residm     vres2    diffor    maxfor
 ETOT  1  -92.383067146777    -9.238E+01 1.005E-04 2.720E+02 6.991E-03 1.083E-02
 ETOT  2  -92.383001205185     6.594E-05 8.339E-05 2.080E+01 1.424E-02 3.411E-03
 ETOT  3  -92.381563828242     1.437E-03 1.190E-04 1.297E+02 1.443E-02 1.102E-02
 ETOT  4  -92.383526122788    -1.962E-03 7.119E-05 2.428E+00 9.092E-03 1.929E-03
 ETOT  5  -92.383529703518    -3.581E-06 1.022E-04 3.207E+00 1.382E-05 1.915E-03
 ETOT  6  -92.383530170185    -4.667E-07 4.316E-05 2.786E+00 1.087E-04 1.807E-03
 ETOT  7  -92.383530102151     6.803E-08 7.204E-05 2.919E+00 1.909E-05 1.826E-03
 ETOT  8  -92.383530096155     5.996E-09 3.133E-05 2.889E+00 1.137E-06 1.825E-03
 ETOT  9  -92.383529545037     5.511E-07 5.457E-05 2.740E+00 6.669E-05 1.891E-03
 ETOT 10  -92.383521551086     7.994E-06 2.395E-05 4.659E+00 2.891E-04 2.181E-03
 ETOT 11  -92.383522719470    -1.168E-06 4.116E-05 3.685E+00 2.532E-05 2.155E-03
 ETOT 12  -92.383527022506    -4.303E-06 1.813E-05 3.108E+00 1.738E-04 1.981E-03
 ETOT 13  -92.383529593105    -2.571E-06 3.125E-05 1.867E+00 1.578E-04 1.824E-03
 ETOT 14  -92.383531168936    -1.576E-06 1.361E-05 1.180E+00 1.810E-04 1.643E-03
 ETOT 15  -92.383531538812    -3.699E-07 2.366E-05 1.021E+00 9.678E-05 1.546E-03
 ETOT 16  -92.383531618120    -7.931E-08 1.024E-05 9.510E-01 1.512E-05 1.531E-03
 ETOT 17  -92.383531694316    -7.620E-08 1.783E-05 8.812E-01 1.543E-05 1.516E-03
 ETOT 18  -92.383531871507    -1.772E-07 7.681E-06 6.444E-01 3.951E-05 1.476E-03
 ETOT 19  -92.383530788233     1.083E-06 1.326E-05 5.061E-01 1.981E-04 1.279E-03
 ETOT 20  -92.383527007358     3.781E-06 5.702E-06 1.021E+00 6.401E-04 1.918E-03
 
 Cartesian components of stress tensor (hartree/bohr^3)
  sigma(1 1)= -2.24533586E-05  sigma(3 2)= -7.04567956E-11
  sigma(2 2)= -2.24546830E-05  sigma(3 1)= -3.70800065E-11
  sigma(3 3)=  1.38902026E-06  sigma(2 1)=  8.43379220E-10
 
 
 scprqt:  WARNING -
  nstep=   20 was not enough SCF cycles to converge;
  maximum energy difference=  3.781E-06 exceeds toldfe=  1.000E-10
 

--- !ResultsGS
iteration_state: {dtset: 1, itime: 3, icycle: 1, }
comment   : Summary of ground state results
lattice_vectors:
- [  2.9859563,  -5.1718280,   0.0000000, ]
- [  2.9859563,   5.1718280,   0.0000000, ]
- [  0.0000000,   0.0000000,  37.7945227, ]
lattice_lengths: [   5.97191,    5.97191,   37.79452, ]
lattice_angles: [ 90.000,  90.000, 120.000, ] # degrees, (23, 13, 12)
lattice_volume:   1.1673104E+03
convergence: {deltae:  3.781E-06, res2:  1.021E+00, residm:  5.702E-06, diffor:  6.401E-04, }
etotal    :  -9.23835270E+01
entropy   :   0.00000000E+00
fermie    :  -6.60199790E-02
cartesian_stress_tensor: # hartree/bohr^3
- [ -2.24533586E-05,   8.43379220E-10,  -3.70800065E-11, ]
- [  8.43379220E-10,  -2.24546830E-05,  -7.04567956E-11, ]
- [ -3.70800065E-11,  -7.04567956E-11,   1.38902026E-06, ]
pressure_GPa:   4.2679E-01
xred      :
- [  3.3333E-01,   6.6667E-01,  -2.4879E-07, Mo]
- [  6.6667E-01,   3.3333E-01,  -7.8760E-02,  S]
- [  6.6667E-01,   3.3333E-01,   7.8761E-02,  S]
cartesian_forces: # hartree/bohr
- [  7.29365457E-07,  -7.02592442E-07,   4.43069050E-06, ]
- [ -1.51413825E-07,   6.67542784E-07,   1.91402513E-03, ]
- [ -5.77951632E-07,   3.50496579E-08,  -1.91845582E-03, ]
force_length_stats: {min:   4.54495637E-06, max:   1.91845591E-03, mean:   1.27900871E-03, }
...

 Integrated electronic density in atomic spheres:
 ------------------------------------------------
 Atom  Sphere_radius  Integrated_density
    1        2.00000         10.50355221
    2        2.00000          3.93294876
    3        2.00000          3.93294600
 
---OUTPUT-----------------------------------------------------------------------
 
 Cartesian coordinates (xcart) [bohr]
  2.98595628478911E+00  1.72394273284395E+00 -9.40275979678821E-06
  2.98595591451406E+00 -1.72394266538695E+00 -2.97671039481680E+00
  2.98595658841465E+00 -1.72394271943291E+00  2.97671979757660E+00
 Reduced coordinates (xred)
  3.33333329235368E-01  6.66666678204962E-01 -2.48786309115333E-07
  6.66666609680621E-01  3.33333273754192E-01 -7.87603648754996E-02
  6.66666727750677E-01  3.33333381374180E-01  7.87606136618087E-02
 Cartesian forces (fcart) [Ha/bohr]; max,rms= 1.91846E-03 9.03326E-04 (free atoms)
  7.29365456761676E-07 -7.02592441756625E-07  4.43069050308646E-06
 -1.51413825223953E-07  6.67542783816183E-07  1.91402513384253E-03
 -5.77951631537724E-07  3.50496579404421E-08 -1.91845582434562E-03
 Gradient of E wrt nuclear positions in reduced coordinates (gred)
 -5.81154058522209E-06  1.45583387857878E-06 -1.67455832608214E-04
  3.90453149078588E-06 -3.00030137145081E-06 -7.23396662884435E-02
  1.90700909443620E-06  1.54446749287204E-06  7.25071221210517E-02
 Total energy (etotal) [Ha]= -9.23835270073577E+01
 
 Difference of energy with previous step (new-old):
           Absolute (Ha)=-6.34612E-05
           Relative     =-6.86932E-07
 
--- Iteration: ( 4/10) Internal Cycle: (1/1)
--------------------------------------------------------------------------------
 
---SELF-CONSISTENT-FIELD CONVERGENCE--------------------------------------------

--- !BeginCycle
iteration_state: {dtset: 1, itime: 4, icycle: 1, }
solver: {iscf: 7, nstep: 20, nline: 4, wfoptalg: 0, }
tolerances: {toldfe: 1.00E-10, }
...
 
     iter   Etot(hartree)      deltaE(h)  residm     vres2    diffor    maxfor
 ETOT  1  -92.383424502205    -9.238E+01 1.405E-05 2.564E+02 3.067E-03 4.986E-03
 ETOT  2  -92.383530062833    -1.056E-04 7.257E-06 7.043E-01 6.902E-03 1.920E-03
 ETOT  3  -92.383517482694     1.258E-05 3.459E-06 3.824E+00 2.086E-03 1.702E-04
 ETOT  4  -92.383531140443    -1.366E-05 4.872E-06 1.640E+00 5.917E-04 4.276E-04
 ETOT  5  -92.383534591506    -3.451E-06 2.408E-06 6.317E-01 5.933E-04 1.020E-03
 ETOT  6  -92.383534864609    -2.731E-07 3.179E-06 8.049E-01 1.914E-04 8.290E-04
 ETOT  7  -92.383534916484    -5.187E-08 1.637E-06 7.708E-01 2.310E-05 8.521E-04
 ETOT  8  -92.383535142706    -2.262E-07 2.258E-06 6.342E-01 6.416E-05 9.162E-04
 ETOT  9  -92.383535079656     6.305E-08 1.172E-06 5.703E-01 1.468E-05 9.016E-04
 ETOT 10  -92.383535387793    -3.081E-07 1.607E-06 4.602E-01 6.930E-05 9.708E-04
 ETOT 11  -92.383535382485     5.308E-09 8.295E-07 4.354E-01 5.843E-06 9.650E-04
 ETOT 12  -92.383535488046    -1.056E-07 1.137E-06 3.784E-01 3.423E-05 9.992E-04
 ETOT 13  -92.383535455747     3.230E-08 5.867E-07 4.043E-01 1.138E-05 9.878E-04
 ETOT 14  -92.383535454877     8.692E-10 8.057E-07 3.893E-01 3.033E-06 9.848E-04
 ETOT 15  -92.383535623298    -1.684E-07 4.164E-07 2.155E-01 4.994E-05 1.035E-03
 ETOT 16  -92.383535666018    -4.272E-08 5.773E-07 1.834E-01 5.529E-05 1.090E-03
 ETOT 17  -92.383535604081     6.194E-08 2.970E-07 2.665E-01 5.424E-05 1.036E-03
 ETOT 18  -92.383535610375    -6.294E-09 4.142E-07 2.590E-01 1.835E-05 1.054E-03
 ETOT 19  -92.383535479308     1.311E-07 2.133E-07 2.845E-01 6.543E-05 9.886E-04
 ETOT 20  -92.383535623425    -1.441E-07 2.991E-07 2.128E-01 8.376E-05 1.072E-03
 
 Cartesian components of stress tensor (hartree/bohr^3)
  sigma(1 1)= -2.42000474E-05  sigma(3 2)= -2.66688661E-10
  sigma(2 2)= -2.42005529E-05  sigma(3 1)=  2.69783432E-11
  sigma(3 3)= -6.09941805E-06  sigma(2 1)= -2.53987582E-10
 
 
 scprqt:  WARNING -
  nstep=   20 was not enough SCF cycles to converge;
  maximum energy difference=  1.441E-07 exceeds toldfe=  1.000E-10
 

--- !ResultsGS
iteration_state: {dtset: 1, itime: 4, icycle: 1, }
comment   : Summary of ground state results
lattice_vectors:
- [  2.9859563,  -5.1718280,   0.0000000, ]
- [  2.9859563,   5.1718280,   0.0000000, ]
- [  0.0000000,   0.0000000,  37.7945227, ]
lattice_lengths: [   5.97191,    5.97191,   37.79452, ]
lattice_angles: [ 90.000,  90.000, 120.000, ] # degrees, (23, 13, 12)
lattice_volume:   1.1673104E+03
convergence: {deltae: -1.441E-07, res2:  2.128E-01, residm:  2.991E-07, diffor:  8.376E-05, }
etotal    :  -9.23835356E+01
entropy   :   0.00000000E+00
fermie    :  -6.49791819E-02
cartesian_stress_tensor: # hartree/bohr^3
- [ -2.42000474E-05,  -2.53987582E-10,   2.69783432E-11, ]
- [ -2.53987582E-10,  -2.42005529E-05,  -2.66688661E-10, ]
- [  2.69783432E-11,  -2.66688661E-10,  -6.09941805E-06, ]
pressure_GPa:   5.3448E-01
xred      :
- [  3.3333E-01,   6.6667E-01,  -2.9815E-07, Mo]
- [  6.6667E-01,   3.3333E-01,  -7.8415E-02,  S]
- [  6.6667E-01,   3.3333E-01,   7.8415E-02,  S]
cartesian_forces: # hartree/bohr
- [ -4.81143962E-07,   5.18878400E-07,   5.40363720E-06, ]
- [  2.83819259E-07,  -3.42476680E-07,  -1.07239905E-03, ]
- [  1.97324704E-07,  -1.76401720E-07,   1.06699541E-03, ]
force_length_stats: {min:   5.44977332E-06, max:   1.07239914E-03, mean:   7.14948118E-04, }
...

 Integrated electronic density in atomic spheres:
 ------------------------------------------------
 Atom  Sphere_radius  Integrated_density
    1        2.00000         10.50416575
    2        2.00000          3.93327153
    3        2.00000          3.93326492
 
---OUTPUT-----------------------------------------------------------------------
 
 Cartesian coordinates (xcart) [bohr]
  2.98595778349711E+00  1.72394102837493E+00 -1.12685162407711E-05
  2.98595547087971E+00 -1.72394127288492E+00 -2.96366285300686E+00
  2.98595553334099E+00 -1.72394240746592E+00  2.96367412152310E+00
 Reduced coordinates (xred)
  3.33333744978843E-01  6.66666764380430E-01 -2.98152098462115E-07
  6.66666400770032E-01  3.33333334091158E-01 -7.84151417878022E-02
  6.66666520917793E-01  3.33333234861745E-01  7.84154399399007E-02
 Cartesian forces (fcart) [Ha/bohr]; max,rms= 1.07240E-03 5.04265E-04 (free atoms)
 -4.81143962349937E-07  5.18878399786570E-07  5.40363719916576E-06
  2.83819258522216E-07 -3.42476679912919E-07 -1.07239904712841E-03
  1.97324703827721E-07 -1.76401719873651E-07  1.06699540992924E-03
 Gradient of E wrt nuclear positions in reduced coordinates (gred)
  4.12022464132101E-06 -1.24687498616543E-06 -2.04227888557931E-04
 -2.61870235985007E-06  9.23758575003819E-07  4.05308100848044E-02
 -1.50152228147095E-06  3.23116411161610E-07 -4.03265821962464E-02
 Total energy (etotal) [Ha]= -9.23835356234251E+01
 
 Difference of energy with previous step (new-old):
           Absolute (Ha)=-8.61607E-06
           Relative     =-9.32641E-08
 
--- Iteration: ( 5/10) Internal Cycle: (1/1)
--------------------------------------------------------------------------------
 
---SELF-CONSISTENT-FIELD CONVERGENCE--------------------------------------------

--- !BeginCycle
iteration_state: {dtset: 1, itime: 5, icycle: 1, }
solver: {iscf: 7, nstep: 20, nline: 4, wfoptalg: 0, }
tolerances: {toldfe: 1.00E-10, }
...
 
     iter   Etot(hartree)      deltaE(h)  residm     vres2    diffor    maxfor
 ETOT  1  -92.383469842391    -9.238E+01 1.389E-06 1.061E+02 2.938E-03 4.011E-03
 ETOT  2  -92.383460745117     9.097E-06 3.005E-07 3.426E+00 5.689E-03 1.680E-03
 ETOT  3  -92.383242357748     2.184E-04 3.251E-06 1.891E+01 5.583E-03 3.905E-03
 ETOT  4  -92.383541264093    -2.989E-04 1.518E-06 1.864E-01 3.572E-03 3.331E-04
 ETOT  5  -92.383541684537    -4.204E-07 1.025E-07 1.762E-01 4.320E-05 3.750E-04
 ETOT  6  -92.383541815642    -1.311E-07 1.427E-08 1.293E-01 7.477E-05 3.003E-04
 ETOT  7  -92.383541805994     9.648E-09 5.207E-08 1.288E-01 1.427E-05 3.145E-04
 ETOT  8  -92.383541810780    -4.787E-09 9.097E-09 1.229E-01 3.820E-06 3.107E-04
 ETOT  9  -92.383541868131    -5.735E-08 2.640E-08 8.287E-02 3.484E-05 2.758E-04
 ETOT 10  -92.383541879868    -1.174E-08 6.976E-09 7.491E-02 8.067E-06 2.678E-04
 ETOT 11  -92.383541878788     1.080E-09 1.862E-08 7.552E-02 1.498E-06 2.693E-04
 ETOT 12  -92.383541899960    -2.117E-08 4.230E-09 5.964E-02 3.830E-05 2.310E-04
 ETOT 13  -92.383541877686     2.227E-08 9.291E-09 7.251E-02 4.088E-05 2.718E-04
 ETOT 14  -92.383541905580    -2.789E-08 3.576E-09 5.448E-02 2.570E-05 2.461E-04
 ETOT 15  -92.383541908593    -3.013E-09 7.023E-09 4.949E-02 4.309E-06 2.418E-04
 ETOT 16  -92.383541909395    -8.024E-10 2.275E-09 4.627E-02 8.943E-07 2.409E-04
 ETOT 17  -92.383541909611    -2.160E-10 4.538E-09 4.352E-02 5.001E-08 2.410E-04
 ETOT 18  -92.383541912367    -2.756E-09 1.573E-09 4.064E-02 5.192E-06 2.358E-04
 ETOT 19  -92.383541918351    -5.983E-09 3.150E-09 1.254E-02 1.597E-05 2.198E-04
 ETOT 20  -92.383541918394    -4.314E-11 1.678E-09 1.168E-02 1.230E-06 2.210E-04
 
 Cartesian components of stress tensor (hartree/bohr^3)
  sigma(1 1)= -2.29122071E-05  sigma(3 2)= -2.08328830E-10
  sigma(2 2)= -2.29124460E-05  sigma(3 1)=  1.65336028E-11
  sigma(3 3)= -9.96143106E-07  sigma(2 1)= -1.78832250E-10
 

--- !ResultsGS
iteration_state: {dtset: 1, itime: 5, icycle: 1, }
comment   : Summary of ground state results
lattice_vectors:
- [  2.9859563,  -5.1718280,   0.0000000, ]
- [  2.9859563,   5.1718280,   0.0000000, ]
- [  0.0000000,   0.0000000,  37.7945227, ]
lattice_lengths: [   5.97191,    5.97191,   37.79452, ]
lattice_angles: [ 90.000,  90.000, 120.000, ] # degrees, (23, 13, 12)
lattice_volume:   1.1673104E+03
convergence: {deltae: -4.314E-11, res2:  1.168E-02, residm:  1.678E-09, diffor:  1.230E-06, }
etotal    :  -9.23835419E+01
entropy   :   0.00000000E+00
fermie    :  -6.45866919E-02
cartesian_stress_tensor: # hartree/bohr^3
- [ -2.29122071E-05,  -1.78832250E-10,   1.65336028E-11, ]
- [ -1.78832250E-10,  -2.29124460E-05,  -2.08328830E-10, ]
- [  1.65336028E-11,  -2.08328830E-10,  -9.96143106E-07, ]
pressure_GPa:   4.5917E-01
xred      :
- [  3.3333E-01,   6.6667E-01,  -1.4672E-07, Mo]
- [  6.6667E-01,   3.3333E-01,  -7.8539E-02,  S]
- [  6.6667E-01,   3.3333E-01,   7.8539E-02,  S]
cartesian_forces: # hartree/bohr
- [ -2.85173052E-07,   2.91690967E-07,   2.58438263E-06, ]
- [  1.46722255E-07,  -1.87020897E-07,  -2.21023082E-04, ]
- [  1.38450797E-07,  -1.04670070E-07,   2.18438699E-04, ]
force_length_stats: {min:   2.61637934E-06, max:   2.21023209E-04, mean:   1.47359452E-04, }
...

 Integrated electronic density in atomic spheres:
 ------------------------------------------------
 Atom  Sphere_radius  Integrated_density
    1        2.00000         10.50281870
    2        2.00000          3.93269780
    3        2.00000          3.93269460
 
---OUTPUT-----------------------------------------------------------------------
 
 Cartesian coordinates (xcart) [bohr]
  2.98595719910728E+00  1.72394172028281E+00 -5.54508372930205E-06
  2.98595575770897E+00 -1.72394175238395E+00 -2.96833959816764E+00
  2.98595583090156E+00 -1.72394261987477E+00  2.96834514325137E+00
 Reduced coordinates (xred)
  3.33333580230442E-01  6.66666733416040E-01 -1.46716596463494E-07
  6.66666495156571E-01  3.33333335764050E-01 -7.85388831352756E-02
  6.66666591279654E-01  3.33333264153243E-01  7.85390298518721E-02
 Cartesian forces (fcart) [Ha/bohr]; max,rms= 2.21023E-04 1.03588E-04 (free atoms)
 -2.85173051621764E-07  2.91690966600286E-07  2.58438262590078E-06
  1.46722254808159E-07 -1.87020896775575E-07 -2.21023081577765E-04
  1.38450796813605E-07 -1.04670069824711E-07  2.18438698951864E-04
 Gradient of E wrt nuclear positions in reduced coordinates (gred)
  2.36008975496189E-06 -6.57061236147991E-07 -9.76755077108066E-05
 -1.40534613788979E-06  5.29133666683396E-07  8.35346186456836E-03
 -9.54743617072099E-07  1.27927569464595E-07 -8.25578635685755E-03
 Total energy (etotal) [Ha]= -9.23835419183938E+01
 
 Difference of energy with previous step (new-old):
           Absolute (Ha)=-6.29497E-06
           Relative     =-6.81395E-08
 
 At Broyd/MD step   5, gradients are converged : 
  max grad (force/stress) = 2.2102E-04 < tolmxf= 5.0000E-04 ha/bohr (free atoms)
 
================================================================================
 
 ----iterations are completed or convergence reached----
 
 Mean square residual over all n,k,spin=   15.005E-12; max=  16.776E-10
 reduced coordinates (array xred) for    3 atoms
       0.333333580230      0.666666733416     -0.000000146717
       0.666666495157      0.333333335764     -0.078538883135
       0.666666591280      0.333333264153      0.078539029852
 rms dE/dt=  3.9150E-03; max dE/dt=  8.3535E-03; dE/dt below (all hartree)
    1       0.000002366008     -0.000000660465     -0.000097605136
    2      -0.000001399428      0.000000525730      0.008353532237
    3      -0.000000948825      0.000000124524     -0.008255715985
 
 cartesian coordinates (angstrom) at end:
    1      1.58010049559281     0.91227066731110    -0.00000293433193
    2      1.58009973283767    -0.91227068429829    -1.57077766270551
    3      1.58009977156952    -0.91227114335466     1.57078059703744
 
 cartesian forces (hartree/bohr) at end:
    1     -0.00000028517305     0.00000029169097     0.00000258438263
    2      0.00000014672225    -0.00000018702090    -0.00022102308158
    3      0.00000013845080    -0.00000010467007     0.00021843869895
 frms,max,avg= 1.0358764E-04 2.2102308E-04  -4.211E-10  9.012E-10 -1.862E-09 h/b
 
 cartesian forces (eV/Angstrom) at end:
    1     -0.00001466418668     0.00001499935132     0.00013289428670
    2      0.00000754476106    -0.00000961700037    -0.01136546286783
    3      0.00000711942562    -0.00000538235094     0.01123256858113
 frms,max,avg= 5.3266904E-03 1.1365463E-02  -2.166E-08  4.634E-08 -9.575E-08 e/A
 length scales=  5.971912525145  5.971912525145 37.794522657713 bohr
              =  3.160200000000  3.160200000000 20.000000000000 angstroms
 prteigrs : about to open file mos2_exp_finalo_DS1_EIG
 Fermi (or HOMO) energy (hartree) =  -0.06459   Average Vxc (hartree)=  -0.14312
 Eigenvalues (hartree) for nkpt=  34  k points:
 kpt#   1, nband= 14, wtk=  0.01563, kpt=  0.0000  0.0000  0.5000 (reduced coord)
  -2.29822   -1.34837   -1.33970   -1.33970   -0.58119   -0.53375   -0.26942   -0.15561
  -0.15561   -0.12945   -0.11466   -0.11466   -0.06459    0.04197
 prteigrs : prtvol=0 or 1, do not print more k-points.
 

--- !EnergyTerms
iteration_state     : {dtset: 1, itime: 5, icycle: 1, }
comment             : Components of total free energy in Hartree
kinetic             :  2.99940754104418E+01
hartree             :  2.82564044449249E+02
xc                  : -1.66137749290742E+01
Ewald energy        :  2.06346090763966E+02
psp_core            :  7.58198985105847E-01
local_psp           : -6.07044060991135E+02
non_local_psp       :  1.16118843930524E+01
total_energy        : -9.23835419183938E+01
total_energy_eV     : -2.51388402148781E+03
band_energy         : -1.71060958975864E+01
...

 rms coord change=  3.3519E-04   atom, delta coord (reduced):
     1        0.000000246897      0.000000066749     -0.000000146717
     2       -0.000000171510      0.000000002431      0.000711116865
     3       -0.000000075387     -0.000000069180     -0.000710970148
 
 Cartesian components of stress tensor (hartree/bohr^3)
  sigma(1 1)= -2.29122071E-05  sigma(3 2)= -2.08328830E-10
  sigma(2 2)= -2.29124460E-05  sigma(3 1)=  1.65336028E-11
  sigma(3 3)= -9.96143106E-07  sigma(2 1)= -1.78832250E-10
 
-Cartesian components of stress tensor (GPa)         [Pressure=  4.5917E-01 GPa]
- sigma(1 1)= -6.74100294E-01  sigma(3 2)= -6.12924476E-06
- sigma(2 2)= -6.74107322E-01  sigma(3 1)=  4.86435307E-07
- sigma(3 3)= -2.93075371E-02  sigma(2 1)= -5.26142556E-06
 
================================================================================
== DATASET  2 ==================================================================
-   mpi_nproc: 80, omp_nthreads: -1 (-1 if OMP is not activated)
-    --> not optimal distribution: autoparal keyword recommended in input file <--
 

--- !DatasetInfo
iteration_state: {dtset: 2, }
dimensions: {natom: 3, nkpt: 143, mband: 34, nsppol: 1, nspinor: 1, nspden: 1, mpw: 39982, }
cutoff_energies: {ecut:  80.0, pawecutdg:  -1.0, }
electrons: {nelect:   2.60000000E+01, charge:   0.00000000E+00, occopt:   1.00000000E+00, tsmear:   1.00000000E-02, }
meta: {optdriver: 0, ionmov: 2, optcell: 0, iscf: -2, paral_kgb: 0, }
...

 mkfilename : getden/=0, take file _DEN from output of DATASET   1.
 
 Exchange-correlation functional for the present dataset will be:
  GGA: Perdew-Burke-Ernzerhof functional - ixc=11
 Citation for XC functional:
  J.P.Perdew, K.Burke, M.Ernzerhof, PRL 77, 3865 (1996)
 
 Real(R)+Recip(G) space primitive vectors, cartesian coordinates (Bohr,Bohr^-1):
 R(1)=  2.9859563 -5.1718280  0.0000000  G(1)=  0.1674505 -0.0966776  0.0000000
 R(2)=  2.9859563  5.1718280  0.0000000  G(2)=  0.1674505  0.0966776  0.0000000
 R(3)=  0.0000000  0.0000000 37.7945227  G(3)=  0.0000000  0.0000000  0.0264589
 Unit cell volume ucvol=  1.1673104E+03 bohr^3
 Angles (23,13,12)=  9.00000000E+01  9.00000000E+01  1.20000000E+02 degrees
 
 getcut: wavevector=  0.0000  0.0000  0.0000  ngfft=  50  50 320
         ecut(hartree)=     80.000   => boxcut(ratio)=   2.07999
--------------------------------------------------------------------------------
 
 
--- !ERROR
src_file: m_ioarr.F90
src_line: 1014
mpi_rank: 0
message: |
    Cannot find file: mos2_exp_finalo_DS1_DEN
...
 
