
.Version 9.10.3 of ABINIT 
.(MPI version, prepared for a x86_64_linux_intel2021.6 computer) 

.Copyright (C) 1998-2022 ABINIT group . 
 ABINIT comes with ABSOLUTELY NO WARRANTY.
 It is free software, and you are welcome to redistribute it
 under certain conditions (GNU General Public License,
 see ~abinit/COPYING or http://www.gnu.org/copyleft/gpl.txt).

 ABINIT is a project of the Universite Catholique de Louvain,
 Corning Inc. and other collaborators, see ~abinit/doc/developers/contributors.txt .
 Please read https://docs.abinit.org/theory/acknowledgments for suggested
 acknowledgments of the ABINIT effort.
 For more information, see https://www.abinit.org .

.Starting date : Fri  9 May 2025.
- ( at 15h31 )
  
- input  file    -> mos2_exp_relx_struc.abi
- output file    -> mos2_exp_relx_struc.abo
- root for input  files -> mos2_exp_relx_struci
- root for output files -> mos2_exp_relx_struco
 
 
 DATASET    1 : space group P1 (#  1); Bravais aP (primitive triclinic)
================================================================================
 Values of the parameters that define the memory need for DATASET  1.
     intxc =       0    ionmov =       2      iscf =       7    lmnmax =       6
     lnmax =       6     mgfft =     320  mpssoang =       3    mqgrid =   15979
     natom =       3  nloc_mem =       1    nspden =       1   nspinor =       1
    nsppol =       1      nsym =       1    n1xccc =    2501    ntypat =       2
    occopt =       1   xclevel =       2
-    mband =          14        mffmem =           1         mkmem =           1
       mpw =       46230          nfft =      933120          nkpt =          10
================================================================================
P This job should need less than                     292.805 Mbytes of memory.
  Rough estimation (10% accuracy) of disk space for files :
_ WF disk file :     98.760 Mbytes ; DEN or POT disk file :      7.121 Mbytes.
================================================================================
 
 
 DATASET    2 : space group P1 (#  1); Bravais aP (primitive triclinic)
================================================================================
 Values of the parameters that define the memory need for DATASET  2.
     intxc =       0    ionmov =       2      iscf =       7    lmnmax =       6
     lnmax =       6     mgfft =     320  mpssoang =       3    mqgrid =   15979
     natom =       3  nloc_mem =       1    nspden =       1   nspinor =       1
    nsppol =       1      nsym =       1    n1xccc =    2501    ntypat =       2
    occopt =       1   xclevel =       2
-    mband =          14        mffmem =           1         mkmem =           1
       mpw =       46264          nfft =      933120          nkpt =          32
================================================================================
P This job should need less than                     292.820 Mbytes of memory.
  Rough estimation (10% accuracy) of disk space for files :
_ WF disk file :    316.260 Mbytes ; DEN or POT disk file :      7.121 Mbytes.
================================================================================
 
--------------------------------------------------------------------------------
------------- Echo of variables that govern the present computation ------------
--------------------------------------------------------------------------------
-
- outvars: echo of selected default values                                      
-   iomode0 =  0 , fftalg0 =512 , wfoptalg0 =  0
-
- outvars: echo of global parameters not present in the input file              
-  max_nthreads =    0
-
 -outvars: echo values of preprocessed input variables --------
            acell      5.9719125251E+00  5.9719125251E+00  3.7794522658E+01 Bohr
              amu      9.59400000E+01  3.20660000E+01
      chksymbreak           0
          dilatmx      1.05000000E+00
             ecut      8.00000000E+01 Hartree
           ecutsm      5.00000000E-01 Hartree
-          fftalg         512
           ionmov           2
           istwfk1       4    0    5    0    0    0    0    8    0    9
              ixc          11
           jdtset        1    2
              kpt1     0.00000000E+00  0.00000000E+00  5.00000000E-01
                       2.50000000E-01  0.00000000E+00  5.00000000E-01
                       5.00000000E-01  0.00000000E+00  5.00000000E-01
                       0.00000000E+00  2.50000000E-01  5.00000000E-01
                       2.50000000E-01  2.50000000E-01  5.00000000E-01
                       5.00000000E-01  2.50000000E-01  5.00000000E-01
                      -2.50000000E-01  2.50000000E-01  5.00000000E-01
                       0.00000000E+00  5.00000000E-01  5.00000000E-01
                       2.50000000E-01  5.00000000E-01  5.00000000E-01
                       5.00000000E-01  5.00000000E-01  5.00000000E-01
              kpt2     6.25000000E-02  6.25000000E-02  5.00000000E-01
                       1.87500000E-01  6.25000000E-02  5.00000000E-01
                       3.12500000E-01  6.25000000E-02  5.00000000E-01
                       4.37500000E-01  6.25000000E-02  5.00000000E-01
                      -4.37500000E-01  6.25000000E-02  5.00000000E-01
                      -3.12500000E-01  6.25000000E-02  5.00000000E-01
                      -1.87500000E-01  6.25000000E-02  5.00000000E-01
                      -6.25000000E-02  6.25000000E-02  5.00000000E-01
                       6.25000000E-02  1.87500000E-01  5.00000000E-01
                       1.87500000E-01  1.87500000E-01  5.00000000E-01
                       3.12500000E-01  1.87500000E-01  5.00000000E-01
                       4.37500000E-01  1.87500000E-01  5.00000000E-01
                      -4.37500000E-01  1.87500000E-01  5.00000000E-01
                      -3.12500000E-01  1.87500000E-01  5.00000000E-01
                      -1.87500000E-01  1.87500000E-01  5.00000000E-01
                      -6.25000000E-02  1.87500000E-01  5.00000000E-01
                       6.25000000E-02  3.12500000E-01  5.00000000E-01
                       1.87500000E-01  3.12500000E-01  5.00000000E-01
                       3.12500000E-01  3.12500000E-01  5.00000000E-01
                       4.37500000E-01  3.12500000E-01  5.00000000E-01
                      -4.37500000E-01  3.12500000E-01  5.00000000E-01
                      -3.12500000E-01  3.12500000E-01  5.00000000E-01
                      -1.87500000E-01  3.12500000E-01  5.00000000E-01
                      -6.25000000E-02  3.12500000E-01  5.00000000E-01
                       6.25000000E-02  4.37500000E-01  5.00000000E-01
                       1.87500000E-01  4.37500000E-01  5.00000000E-01
                       3.12500000E-01  4.37500000E-01  5.00000000E-01
                       4.37500000E-01  4.37500000E-01  5.00000000E-01
                      -4.37500000E-01  4.37500000E-01  5.00000000E-01
                      -3.12500000E-01  4.37500000E-01  5.00000000E-01
                      -1.87500000E-01  4.37500000E-01  5.00000000E-01
                      -6.25000000E-02  4.37500000E-01  5.00000000E-01
         kptrlatt1       4    0    0      0    4    0      0    0    1
         kptrlatt2       8    0    0      0    8    0      0    0    1
          kptrlen1     2.38876501E+01
          kptrlen2     4.77753002E+01
P           mkmem           1
            natom           3
            nband1         14
            nband2         14
           ndtset           2
            ngfft          54      54     320
             nkpt1         10
             nkpt2         32
            nstep         150
             nsym           1
            ntime        1000
           ntypat           2
              occ1     2.000000  2.000000  2.000000  2.000000  2.000000  2.000000
                       2.000000  2.000000  2.000000  2.000000  2.000000  2.000000
                       2.000000  0.000000
              occ2     2.000000  2.000000  2.000000  2.000000  2.000000  2.000000
                       2.000000  2.000000  2.000000  2.000000  2.000000  2.000000
                       2.000000  0.000000
            rprim      5.0000000000E-01 -8.6602540378E-01  0.0000000000E+00
                       5.0000000000E-01  8.6602540378E-01  0.0000000000E+00
                       0.0000000000E+00  0.0000000000E+00  1.0000000000E+00
           shiftk1     0.00000000E+00  0.00000000E+00  5.00000000E-01
           shiftk2     5.00000000E-01  5.00000000E-01  5.00000000E-01
          spgroup           1
           toldfe      1.00000000E-10 Hartree
            typat      1  2  2
              wtk1       0.06250    0.12500    0.06250    0.12500    0.12500    0.12500
                         0.12500    0.06250    0.12500    0.06250
              wtk2       0.03125    0.03125    0.03125    0.03125    0.03125    0.03125
                         0.03125    0.03125    0.03125    0.03125    0.03125    0.03125
                         0.03125    0.03125    0.03125    0.03125    0.03125    0.03125
                         0.03125    0.03125    0.03125    0.03125    0.03125    0.03125
                         0.03125    0.03125    0.03125    0.03125    0.03125    0.03125
                         0.03125    0.03125
           xangst      1.5801000000E+00  9.1227116034E-01  0.0000000000E+00
                       1.5801000000E+00 -9.1227116034E-01 -1.5850000000E+00
                       1.5801000000E+00 -9.1227116034E-01  1.5850000000E+00
            xcart      2.9859562626E+00  1.7239426520E+00  0.0000000000E+00
                       2.9859562626E+00 -1.7239426520E+00 -2.9952159206E+00
                       2.9859562626E+00 -1.7239426520E+00  2.9952159206E+00
             xred      3.3333333333E-01  6.6666666667E-01  0.0000000000E+00
                       6.6666666667E-01  3.3333333333E-01 -7.9250000000E-02
                       6.6666666667E-01  3.3333333333E-01  7.9250000000E-02
            znucl       42.00000   16.00000
 
================================================================================
 
 chkinp: Checking input parameters for consistency, jdtset=   1.
 
 chkinp: Checking input parameters for consistency, jdtset=   2.
 
================================================================================
== DATASET  1 ==================================================================
-   mpi_nproc: 80, omp_nthreads: -1 (-1 if OMP is not activated)
-    --> not optimal distribution: autoparal keyword recommended in input file <--
 

--- !DatasetInfo
iteration_state: {dtset: 1, }
dimensions: {natom: 3, nkpt: 10, mband: 14, nsppol: 1, nspinor: 1, nspden: 1, mpw: 46230, }
cutoff_energies: {ecut:  80.0, pawecutdg:  -1.0, }
electrons: {nelect:   2.60000000E+01, charge:   0.00000000E+00, occopt:   1.00000000E+00, tsmear:   1.00000000E-02, }
meta: {optdriver: 0, ionmov: 2, optcell: 0, iscf: 7, paral_kgb: 0, }
...

 Exchange-correlation functional for the present dataset will be:
  GGA: Perdew-Burke-Ernzerhof functional - ixc=11
 Citation for XC functional:
  J.P.Perdew, K.Burke, M.Ernzerhof, PRL 77, 3865 (1996)
 
 Real(R)+Recip(G) space primitive vectors, cartesian coordinates (Bohr,Bohr^-1):
 R(1)=  2.9859563 -5.1718280  0.0000000  G(1)=  0.1674505 -0.0966776  0.0000000
 R(2)=  2.9859563  5.1718280  0.0000000  G(2)=  0.1674505  0.0966776  0.0000000
 R(3)=  0.0000000  0.0000000 37.7945227  G(3)=  0.0000000  0.0000000  0.0264589
 Unit cell volume ucvol=  1.1673104E+03 bohr^3
 Angles (23,13,12)=  9.00000000E+01  9.00000000E+01  1.20000000E+02 degrees
 
 getcut: wavevector=  0.0000  0.0000  0.0000  ngfft=  54  54 320
         ecut(hartree)=     88.200   => boxcut(ratio)=   2.00273
 
--- Pseudopotential description ------------------------------------------------
- pspini: atom type   1  psp file is ../persudo/Mo.psp8
- pspatm: opening atomic psp file    ../persudo/Mo.psp8
- Mo    ONCVPSP-3.2.3.1  r_core=   1.45541   1.45541   1.35488
- 42.00000  14.00000    170510                znucl, zion, pspdat
    8   11    2    4       600   0.00000      pspcod,pspxc,lmax,lloc,mmax,r2well
    5.99000000000000    3.00000000000000    0.00000000000000   rchrg,fchrg,qchrg
     nproj     2     2     2
     extension_switch     1
  pspatm : epsatm=   15.95693586
         --- l  ekb(1:nproj) -->
             0   13.833287    1.350687
             1    8.015347    1.134034
             2    2.765699    0.969071
 pspatm: atomic psp has been read  and splines computed
 
- pspini: atom type   2  psp file is ../persudo/S.psp8
- pspatm: opening atomic psp file    ../persudo/S.psp8
- S     ONCVPSP-4.0.1  r_core=   1.45687   1.45687   1.45687
- 16.00000   6.00000    220131                znucl, zion, pspdat
    8   11    2    4       600   0.00000      pspcod,pspxc,lmax,lloc,mmax,r2well
    5.99000000000000    6.00000000000000    0.00000000000000   rchrg,fchrg,qchrg
     nproj     2     2     2
     extension_switch     1
  pspatm : epsatm=    9.04179351
         --- l  ekb(1:nproj) -->
             0    6.774234    0.542270
             1    3.022426    0.737017
             2   -5.033160   -1.531047
 pspatm: atomic psp has been read  and splines computed
 
   8.85053595E+02                                ecore*ucvol(ha*bohr**3)
--------------------------------------------------------------------------------
 
_setup2: Arith. and geom. avg. npw (full set) are   46195.000   46194.968
 
================================================================================
 
=== [ionmov= 2] Broyden-Fletcher-Goldfard-Shanno method (forces)            
================================================================================
 
--- Iteration: (   1/1000) Internal Cycle: (1/1)
--------------------------------------------------------------------------------
 
---SELF-CONSISTENT-FIELD CONVERGENCE--------------------------------------------

--- !BeginCycle
iteration_state: {dtset: 1, itime: 1, icycle: 1, }
solver: {iscf: 7, nstep: 150, nline: 4, wfoptalg: 0, }
tolerances: {toldfe: 1.00E-10, }
...
 
     iter   Etot(hartree)      deltaE(h)  residm     vres2
 ETOT  1  -91.728644447212    -9.173E+01 1.874E-01 2.370E+04
 ETOT  2  -89.281494350929     2.447E+00 3.774E-02 2.056E+05
 ETOT  3  -92.345166073645    -3.064E+00 5.365E-02 3.931E+03
 ETOT  4  -92.373248662583    -2.808E-02 5.058E-03 2.164E+03
 ETOT  5  -92.378789710093    -5.541E-03 8.118E-04 1.415E+03
 ETOT  6  -92.381821819604    -3.032E-03 4.063E-04 9.380E+02
 ETOT  7  -92.384859112784    -3.037E-03 4.858E-04 3.609E+02
 ETOT  8  -92.385219951814    -3.608E-04 3.450E-04 2.552E+02
 ETOT  9  -92.385365720759    -1.458E-04 6.196E-04 1.861E+02
 ETOT 10  -92.385439347306    -7.363E-05 4.895E-04 1.257E+02
 ETOT 11  -92.385439546498    -1.992E-07 7.196E-04 1.208E+02
 ETOT 12  -92.385436123097     3.423E-06 6.065E-04 1.199E+02
 ETOT 13  -92.385446900969    -1.078E-05 7.353E-04 1.029E+02
 ETOT 14  -92.385454817298    -7.916E-06 6.426E-04 8.843E+01
 ETOT 15  -92.385457843254    -3.026E-06 7.215E-04 8.396E+01
 ETOT 16  -92.385456800347     1.043E-06 5.846E-04 8.421E+01
 ETOT 17  -92.385456813556    -1.321E-08 6.119E-04 8.499E+01
 ETOT 18  -92.385455285553     1.528E-06 4.634E-04 8.498E+01
 ETOT 19  -92.385449613922     5.672E-06 4.622E-04 7.059E+01
 ETOT 20  -92.385461043497    -1.143E-05 3.281E-04 6.077E+01
 ETOT 21  -92.385460222905     8.206E-07 3.134E-04 6.697E+01
 ETOT 22  -92.385458253488     1.969E-06 2.157E-04 6.915E+01
 ETOT 23  -92.385462173403    -3.920E-06 2.006E-04 5.873E+01
 ETOT 24  -92.385463414909    -1.242E-06 1.353E-04 5.938E+01
 ETOT 25  -92.385463740815    -3.259E-07 1.234E-04 5.292E+01
 ETOT 26  -92.385466404903    -2.664E-06 8.203E-05 4.374E+01
 ETOT 27  -92.385465320036     1.085E-06 7.402E-05 4.859E+01
 ETOT 28  -92.385462942157     2.378E-06 4.865E-05 5.049E+01
 ETOT 29  -92.385466519286    -3.577E-06 4.351E-05 4.508E+01
 ETOT 30  -92.385467637009    -1.118E-06 2.880E-05 4.049E+01
 ETOT 31  -92.385467200643     4.364E-07 2.542E-05 4.449E+01
 ETOT 32  -92.385467437776    -2.371E-07 1.689E-05 4.230E+01
 ETOT 33  -92.385466969309     4.685E-07 1.500E-05 4.212E+01
 ETOT 34  -92.385467158192    -1.889E-07 1.116E-05 4.164E+01
 ETOT 35  -92.385466831957     3.262E-07 8.769E-06 4.062E+01
 ETOT 36  -92.385466235147     5.968E-07 7.608E-06 4.075E+01
 ETOT 37  -92.385465048639     1.187E-06 5.936E-06 4.055E+01
 ETOT 38  -92.385466994062    -1.945E-06 5.338E-06 3.937E+01
 ETOT 39  -92.385466529608     4.645E-07 4.039E-06 3.955E+01
 ETOT 40  -92.385467349489    -8.199E-07 3.865E-06 3.832E+01
 ETOT 41  -92.385467353948    -4.459E-09 2.716E-06 3.815E+01
 ETOT 42  -92.385467215091     1.389E-07 3.526E-06 3.787E+01
 ETOT 43  -92.385466208786     1.006E-06 1.775E-06 3.689E+01
 ETOT 44  -92.385467494204    -1.285E-06 2.472E-06 3.597E+01
 ETOT 45  -92.385466715520     7.787E-07 1.234E-06 3.632E+01
 ETOT 46  -92.385466912628    -1.971E-07 1.736E-06 3.616E+01
 ETOT 47  -92.385468129693    -1.217E-06 8.100E-07 3.476E+01
 ETOT 48  -92.385466326135     1.804E-06 1.177E-06 3.600E+01
 ETOT 49  -92.385467937132    -1.611E-06 5.610E-07 3.435E+01
 ETOT 50  -92.385468131463    -1.943E-07 8.862E-07 3.386E+01
 ETOT 51  -92.385469450185    -1.319E-06 3.619E-07 3.016E+01
 ETOT 52  -92.385469488304    -3.812E-08 6.833E-07 2.948E+01
 ETOT 53  -92.385468391462     1.097E-06 3.146E-07 2.959E+01
 ETOT 54  -92.385469704254    -1.313E-06 4.671E-07 2.731E+01
 ETOT 55  -92.385469375387     3.289E-07 1.957E-07 2.759E+01
 ETOT 56  -92.385469176931     1.985E-07 2.964E-07 2.776E+01
 ETOT 57  -92.385469741031    -5.641E-07 1.202E-07 2.638E+01
 ETOT 58  -92.385469789594    -4.856E-08 2.206E-07 2.631E+01
 ETOT 59  -92.385469993176    -2.036E-07 8.463E-08 2.531E+01
 ETOT 60  -92.385470104575    -1.114E-07 1.502E-07 2.497E+01
 ETOT 61  -92.385469947381     1.572E-07 5.887E-08 2.540E+01
 ETOT 62  -92.385469615732     3.316E-07 9.344E-08 2.626E+01
 ETOT 63  -92.385469083960     5.318E-07 4.443E-08 2.681E+01
 ETOT 64  -92.385468775237     3.087E-07 5.671E-08 2.708E+01
 ETOT 65  -92.385469217142    -4.419E-07 2.884E-08 2.666E+01
 ETOT 66  -92.385467931184     1.286E-06 3.280E-08 2.654E+01
 ETOT 67  -92.385470154463    -2.223E-06 2.245E-08 2.375E+01
 ETOT 68  -92.385468825815     1.329E-06 2.201E-08 2.437E+01
 ETOT 69  -92.385470282527    -1.457E-06 1.339E-08 2.176E+01
 ETOT 70  -92.385470638839    -3.563E-07 4.107E-08 2.070E+01
 ETOT 71  -92.385469943692     6.951E-07 8.656E-09 1.919E+01
 ETOT 72  -92.385470827047    -8.834E-07 1.190E-08 1.941E+01
 ETOT 73  -92.385466436452     4.391E-06 2.395E-08 1.723E+01
 ETOT 74  -92.385468483424    -2.047E-06 9.884E-09 1.748E+01
 ETOT 75  -92.385470517579    -2.034E-06 2.134E-08 2.000E+01
 ETOT 76  -92.385470699762    -1.822E-07 7.689E-09 1.833E+01
 ETOT 77  -92.385470941474    -2.417E-07 3.441E-09 1.768E+01
 ETOT 78  -92.385470531612     4.099E-07 9.113E-09 1.828E+01
 ETOT 79  -92.385468981617     1.550E-06 6.391E-09 1.833E+01
 ETOT 80  -92.385470173201    -1.192E-06 2.274E-09 1.687E+01
 ETOT 81  -92.385470226521    -5.332E-08 2.461E-09 1.640E+01
 ETOT 82  -92.385471159589    -9.331E-07 1.397E-09 1.455E+01
 ETOT 83  -92.385471079110     8.048E-08 1.786E-09 1.437E+01
 ETOT 84  -92.385471396721    -3.176E-07 6.485E-10 1.377E+01
 ETOT 85  -92.385470992860     4.039E-07 2.059E-09 1.183E+01
 ETOT 86  -92.385470889887     1.030E-07 2.231E-09 1.182E+01
 ETOT 87  -92.385470937685    -4.780E-08 1.918E-10 1.150E+01
 ETOT 88  -92.385470874106     6.358E-08 3.996E-10 1.216E+01
 ETOT 89  -92.385471106395    -2.323E-07 2.849E-10 1.201E+01
 ETOT 90  -92.385471605650    -4.993E-07 4.498E-10 1.090E+01
 ETOT 91  -92.385471621191    -1.554E-08 1.654E-10 1.013E+01
 ETOT 92  -92.385471978558    -3.574E-07 2.026E-09 9.601E+00
 ETOT 93  -92.385471355283     6.233E-07 2.600E-09 1.002E+01
 ETOT 94  -92.385471862526    -5.072E-07 8.114E-10 9.066E+00
 ETOT 95  -92.385471952258    -8.973E-08 7.908E-10 8.845E+00
 ETOT 96  -92.385471907797     4.446E-08 1.051E-10 8.599E+00
 ETOT 97  -92.385471994544    -8.675E-08 7.318E-11 8.206E+00
 ETOT 98  -92.385472449973    -4.554E-07 1.384E-09 4.603E+00
 ETOT 99  -92.385472386699     6.327E-08 1.639E-10 5.035E+00
 ETOT  100  -92.385472438710    -5.201E-08 3.867E-10 5.185E+00
 ETOT  101  -92.385472478095    -3.938E-08 1.284E-09 5.074E+00
 ETOT  102  -92.385472388465     8.963E-08 7.499E-10 5.515E+00
 ETOT  103  -92.385472235164     1.533E-07 1.247E-10 6.046E+00
 ETOT  104  -92.385471690839     5.443E-07 9.139E-10 7.073E+00
 ETOT  105  -92.385472208162    -5.173E-07 8.275E-10 6.607E+00
 ETOT  106  -92.385472394832    -1.867E-07 3.398E-10 5.832E+00
 ETOT  107  -92.385472401226    -6.394E-09 6.341E-10 5.772E+00
 ETOT  108  -92.385472424445    -2.322E-08 2.085E-10 5.589E+00
 ETOT  109  -92.385472144662     2.798E-07 1.688E-09 5.566E+00
 ETOT  110  -92.385472443840    -2.992E-07 1.035E-09 5.409E+00
 ETOT  111  -92.385472180212     2.636E-07 6.211E-10 5.903E+00
 ETOT  112  -92.385472188145    -7.933E-09 9.949E-11 5.488E+00
 ETOT  113  -92.385472005412     1.827E-07 2.964E-10 5.492E+00
 ETOT  114  -92.385472267361    -2.619E-07 1.772E-10 5.149E+00
 ETOT  115  -92.385472554025    -2.867E-07 3.538E-10 4.258E+00
 ETOT  116  -92.385472580659    -2.663E-08 6.676E-10 4.166E+00
 ETOT  117  -92.385472504178     7.648E-08 1.202E-10 4.486E+00
 ETOT  118  -92.385472463555     4.062E-08 1.604E-11 4.616E+00
 ETOT  119  -92.385472443237     2.032E-08 3.450E-11 4.318E+00
 ETOT  120  -92.385472541559    -9.832E-08 4.553E-11 3.854E+00
 ETOT  121  -92.385472612042    -7.048E-08 8.514E-11 3.725E+00
 ETOT  122  -92.385472606311     5.732E-09 3.046E-11 3.673E+00
 ETOT  123  -92.385472663525    -5.721E-08 6.916E-11 3.361E+00
 ETOT  124  -92.385472708028    -4.450E-08 2.273E-10 3.032E+00
 ETOT  125  -92.385472705182     2.846E-09 6.724E-11 2.946E+00
 ETOT  126  -92.385472823371    -1.182E-07 3.766E-10 1.889E+00
 ETOT  127  -92.385472666183     1.572E-07 1.069E-09 1.993E+00
 ETOT  128  -92.385472792619    -1.264E-07 5.571E-10 2.176E+00
 ETOT  129  -92.385472753041     3.958E-08 3.390E-11 2.530E+00
 ETOT  130  -92.385472759828    -6.787E-09 5.029E-11 2.243E+00
 ETOT  131  -92.385472777689    -1.786E-08 1.926E-10 1.577E+00
 ETOT  132  -92.385472713059     6.463E-08 4.860E-11 1.498E+00
 ETOT  133  -92.385472709477     3.582E-09 1.272E-11 1.552E+00
 ETOT  134  -92.385472748959    -3.948E-08 1.331E-10 1.977E+00
 ETOT  135  -92.385472768553    -1.959E-08 1.065E-11 1.801E+00
 ETOT  136  -92.385472883043    -1.145E-07 4.995E-10 1.330E+00
 ETOT  137  -92.385472819826     6.322E-08 4.340E-10 1.350E+00
 ETOT  138  -92.385472861868    -4.204E-08 1.118E-10 1.389E+00
 ETOT  139  -92.385472901811    -3.994E-08 5.826E-11 1.044E+00
 ETOT  140  -92.385472966576    -6.476E-08 2.111E-10 5.681E-01
 ETOT  141  -92.385472957930     8.646E-09 3.071E-10 6.229E-01
 ETOT  142  -92.385472960657    -2.728E-09 1.156E-10 6.151E-01
 ETOT  143  -92.385472958044     2.613E-09 1.158E-10 6.138E-01
 ETOT  144  -92.385472886380     7.166E-08 2.610E-10 1.047E+00
 ETOT  145  -92.385472911243    -2.486E-08 2.074E-11 9.460E-01
 ETOT  146  -92.385472981242    -7.000E-08 2.251E-10 3.919E-01
 ETOT  147  -92.385472920673     6.057E-08 1.299E-10 6.276E-01
 ETOT  148  -92.385473002137    -8.146E-08 4.729E-10 1.878E-01
 ETOT  149  -92.385472985687     1.645E-08 3.553E-10 6.907E-02
 ETOT  150  -92.385472999760    -1.407E-08 3.047E-10 1.943E-01
 
 Cartesian components of stress tensor (hartree/bohr^3)
  sigma(1 1)= -1.09024148E-05  sigma(3 2)= -2.79470105E-12
  sigma(2 2)= -1.09026350E-05  sigma(3 1)= -1.17582684E-11
  sigma(3 3)=  2.85894299E-05  sigma(2 1)=  1.20862071E-10
 
 
 scprqt:  WARNING -
  nstep=  150 was not enough SCF cycles to converge;
  maximum energy difference=  1.407E-08 exceeds toldfe=  1.000E-10
 

--- !ResultsGS
iteration_state: {dtset: 1, itime: 1, icycle: 1, }
comment   : Summary of ground state results
lattice_vectors:
- [  2.9859563,  -5.1718280,   0.0000000, ]
- [  2.9859563,   5.1718280,   0.0000000, ]
- [  0.0000000,   0.0000000,  37.7945227, ]
lattice_lengths: [   5.97191,    5.97191,   37.79452, ]
lattice_angles: [ 90.000,  90.000, 120.000, ] # degrees, (23, 13, 12)
lattice_volume:   1.1673104E+03
convergence: {deltae: -1.407E-08, res2:  1.943E-01, residm:  3.047E-10, diffor: null, }
etotal    :  -9.23854730E+01
entropy   :   0.00000000E+00
fermie    :  -6.59675354E-02
cartesian_stress_tensor: # hartree/bohr^3
- [ -1.09024148E-05,   1.20862071E-10,  -1.17582684E-11, ]
- [  1.20862071E-10,  -1.09026350E-05,  -2.79470105E-12, ]
- [ -1.17582684E-11,  -2.79470105E-12,   2.85894299E-05, ]
pressure_GPa:  -6.6534E-02
xred      :
- [  3.3333E-01,   6.6667E-01,   0.0000E+00, Mo]
- [  6.6667E-01,   3.3333E-01,  -7.9250E-02,  S]
- [  6.6667E-01,   3.3333E-01,   7.9250E-02,  S]
cartesian_forces: # hartree/bohr
- [ -3.07559000E-08,  -2.49173396E-08,  -3.16308455E-07, ]
- [ -1.56102745E-07,  -8.15764661E-08,   5.69924205E-03, ]
- [  1.86858645E-07,   1.06493806E-07,  -5.69892574E-03, ]
force_length_stats: {min:   3.18775529E-07, max:   5.69924205E-03, mean:   3.79949552E-03, }
...

 Integrated electronic density in atomic spheres:
 ------------------------------------------------
 Atom  Sphere_radius  Integrated_density
    1        2.00000         10.49215537
    2        2.00000          3.92382757
    3        2.00000          3.92382791
 
---OUTPUT-----------------------------------------------------------------------
 
 Cartesian coordinates (xcart) [bohr]
  2.98595626257260E+00  1.72394265197591E+00  0.00000000000000E+00
  2.98595626257260E+00 -1.72394265197591E+00 -2.99521592062374E+00
  2.98595626257260E+00 -1.72394265197591E+00  2.99521592062374E+00
 Reduced coordinates (xred)
  3.33333333333333E-01  6.66666666666667E-01  0.00000000000000E+00
  6.66666666666667E-01  3.33333333333333E-01 -7.92500000000000E-02
  6.66666666666667E-01  3.33333333333333E-01  7.92500000000000E-02
 Cartesian forces (fcart) [Ha/bohr]; max,rms= 5.69924E-03 2.68657E-03 (free atoms)
 -3.07558999839113E-08 -2.49173396203449E-08 -3.16308455218445E-07
 -1.56102744938641E-07 -8.15764661365201E-08  5.69924204902164E-03
  1.86858644922552E-07  1.06493805756865E-07 -5.69892574056643E-03
 Gradient of E wrt nuclear positions in reduced coordinates (gred)
 -3.70324214678286E-08  2.20703965803862E-07  1.19547270775797E-05
  4.42165207436618E-08  8.88015416964953E-07 -2.15400132753538E-01
 -7.18409927583335E-09 -1.10871938276882E-06  2.15388178026461E-01
 Total energy (etotal) [Ha]= -9.23854729997599E+01
 
--- Iteration: (   2/1000) Internal Cycle: (1/1)
--------------------------------------------------------------------------------
 
---SELF-CONSISTENT-FIELD CONVERGENCE--------------------------------------------

--- !BeginCycle
iteration_state: {dtset: 1, itime: 2, icycle: 1, }
solver: {iscf: 7, nstep: 150, nline: 4, wfoptalg: 0, }
tolerances: {toldfe: 1.00E-10, }
...
 
     iter   Etot(hartree)      deltaE(h)  residm     vres2
 ETOT  1  -92.385457773016    -9.239E+01 1.608E-06 1.160E+02
 ETOT  2  -92.385455164132     2.609E-06 2.961E-07 3.430E+00
 ETOT  3  -92.385242274006     2.129E-04 2.871E-06 2.268E+01
 ETOT  4  -92.385530645338    -2.884E-04 1.196E-06 4.646E-01
 ETOT  5  -92.385530975578    -3.302E-07 1.921E-08 3.936E-01
 ETOT  6  -92.385531177042    -2.015E-07 1.555E-09 2.976E-01
 ETOT  7  -92.385531179838    -2.797E-09 4.276E-10 2.856E-01
 ETOT  8  -92.385531292559    -1.127E-07 4.312E-10 1.911E-01
 ETOT  9  -92.385531315328    -2.277E-08 3.146E-11 1.746E-01
 ETOT 10  -92.385531313320     2.008E-09 2.054E-11 1.767E-01
 ETOT 11  -92.385531293152     2.017E-08 2.870E-11 1.920E-01
 ETOT 12  -92.385531331203    -3.805E-08 7.079E-11 1.686E-01
 ETOT 13  -92.385531389527    -5.832E-08 4.772E-10 9.047E-02
 ETOT 14  -92.385531376295     1.323E-08 1.331E-10 1.069E-01
 ETOT 15  -92.385531367485     8.810E-09 1.045E-10 1.146E-01
 ETOT 16  -92.385531396896    -2.941E-08 1.583E-10 6.614E-02
 ETOT 17  -92.385531387652     9.244E-09 1.386E-11 7.522E-02
 ETOT 18  -92.385531388860    -1.208E-09 2.772E-11 8.300E-02
 ETOT 19  -92.385531401189    -1.233E-08 5.208E-11 5.666E-02
 ETOT 20  -92.385531402544    -1.355E-09 6.714E-11 5.736E-02
 ETOT 21  -92.385531401628     9.158E-10 1.975E-11 5.852E-02
 ETOT 22  -92.385531402481    -8.527E-10 1.218E-11 5.147E-02
 ETOT 23  -92.385531403786    -1.305E-09 1.616E-11 5.078E-02
 ETOT 24  -92.385531403469     3.169E-10 1.540E-11 3.783E-02
 ETOT 25  -92.385531410179    -6.710E-09 2.213E-11 2.322E-02
 ETOT 26  -92.385531409021     1.158E-09 1.617E-11 2.582E-02
 ETOT 27  -92.385531407205     1.816E-09 7.710E-12 3.009E-02
 ETOT 28  -92.385531410736    -3.531E-09 1.874E-11 1.348E-02
 ETOT 29  -92.385531409267     1.469E-09 4.501E-12 2.012E-02
 ETOT 30  -92.385531409786    -5.182E-10 6.356E-12 1.770E-02
 ETOT 31  -92.385531412231    -2.446E-09 1.805E-11 1.283E-02
 ETOT 32  -92.385531412215     1.674E-11 2.663E-11 1.257E-02
 ETOT 33  -92.385531412132     8.230E-11 1.581E-12 1.252E-02
 
 At SCF step   33, etot is converged : 
  for the second time, diff in etot=  8.230E-11 < toldfe=  1.000E-10
 
 Cartesian components of stress tensor (hartree/bohr^3)
  sigma(1 1)= -1.26816437E-05  sigma(3 2)=  4.39370545E-11
  sigma(2 2)= -1.26815759E-05  sigma(3 1)=  8.02668668E-11
  sigma(3 3)=  2.34205636E-05  sigma(2 1)=  1.12766300E-11
 

--- !ResultsGS
iteration_state: {dtset: 1, itime: 2, icycle: 1, }
comment   : Summary of ground state results
lattice_vectors:
- [  2.9859563,  -5.1718280,   0.0000000, ]
- [  2.9859563,   5.1718280,   0.0000000, ]
- [  0.0000000,   0.0000000,  37.7945227, ]
lattice_lengths: [   5.97191,    5.97191,   37.79452, ]
lattice_angles: [ 90.000,  90.000, 120.000, ] # degrees, (23, 13, 12)
lattice_volume:   1.1673104E+03
convergence: {deltae:  8.230E-11, res2:  1.252E-02, residm:  1.581E-12, diffor: null, }
etotal    :  -9.23855314E+01
entropy   :   0.00000000E+00
fermie    :  -6.52497684E-02
cartesian_stress_tensor: # hartree/bohr^3
- [ -1.26816437E-05,   1.12766300E-11,   8.02668668E-11, ]
- [  1.12766300E-11,  -1.26815759E-05,   4.39370545E-11, ]
- [  8.02668668E-11,   4.39370545E-11,   2.34205636E-05, ]
pressure_GPa:   1.9052E-02
xred      :
- [  3.3333E-01,   6.6667E-01,  -8.3692E-09, Mo]
- [  6.6667E-01,   3.3333E-01,  -7.9099E-02,  S]
- [  6.6667E-01,   3.3333E-01,   7.9099E-02,  S]
cartesian_forces: # hartree/bohr
- [  7.33475907E-09,   2.47954326E-09,   1.44148767E-07, ]
- [  8.20857229E-09,   6.88504158E-09,   4.59197939E-03, ]
- [ -1.55433314E-08,  -9.36458484E-09,  -4.59212353E-03, ]
force_length_stats: {min:   1.44356552E-07, max:   4.59212353E-03, mean:   3.06141576E-03, }
...

 Integrated electronic density in atomic spheres:
 ------------------------------------------------
 Atom  Sphere_radius  Integrated_density
    1        2.00000         10.49386415
    2        2.00000          3.92693147
    3        2.00000          3.92693128
 
---OUTPUT-----------------------------------------------------------------------
 
 Cartesian coordinates (xcart) [bohr]
  2.98595623181670E+00  1.72394262705857E+00 -3.16308455218445E-07
  2.98595610646986E+00 -1.72394273355237E+00 -2.98951667857472E+00
  2.98595644943125E+00 -1.72394254548210E+00  2.98951699488318E+00
 Reduced coordinates (xred)
  3.33333330592190E-01  6.66666659107625E-01 -8.36916126929560E-09
  6.66666648413795E-01  3.33333299307225E-01 -7.90992045500710E-02
  6.66666687660681E-01  3.33333374918482E-01  7.90992129192323E-02
 Cartesian forces (fcart) [Ha/bohr]; max,rms= 4.59212E-03 2.16471E-03 (free atoms)
  7.33475906966067E-09  2.47954325881606E-09  1.44148767487575E-07
  8.20857228722757E-09  6.88504157680126E-09  4.59197938506860E-03
 -1.55433313568882E-08 -9.36458483561732E-09 -4.59212353383609E-03
 Gradient of E wrt nuclear positions in reduced coordinates (gred)
 -9.07749863463750E-09 -3.47250409223915E-08 -5.44803385889052E-06
  1.10978126767984E-08 -6.01186883324525E-08 -1.73551668912726E-01
 -2.02031404216085E-09  9.48437292548440E-08  1.73557116946584E-01
 Total energy (etotal) [Ha]= -9.23855314121324E+01
 
 Difference of energy with previous step (new-old):
           Absolute (Ha)=-5.84124E-05
           Relative     =-6.32268E-07
 
--- Iteration: (   3/1000) Internal Cycle: (1/1)
--------------------------------------------------------------------------------
 
---SELF-CONSISTENT-FIELD CONVERGENCE--------------------------------------------

--- !BeginCycle
iteration_state: {dtset: 1, itime: 3, icycle: 1, }
solver: {iscf: 7, nstep: 150, nline: 4, wfoptalg: 0, }
tolerances: {toldfe: 1.00E-10, }
...
 
     iter   Etot(hartree)      deltaE(h)  residm     vres2
 ETOT  1  -92.384245325939    -9.238E+01 3.229E-05 7.043E+02
 ETOT  2  -92.384210520135     3.481E-05 5.660E-06 6.417E+01
 ETOT  3  -92.380642119552     3.568E-03 5.174E-05 3.858E+02
 ETOT  4  -92.385629698288    -4.988E-03 2.048E-05 7.575E+00
 ETOT  5  -92.385635991178    -6.293E-06 3.355E-07 6.051E+00
 ETOT  6  -92.385637493971    -1.503E-06 3.260E-08 5.324E+00
 ETOT  7  -92.385637779416    -2.854E-07 1.454E-08 5.082E+00
 ETOT  8  -92.385638647868    -8.685E-07 6.821E-09 4.347E+00
 ETOT  9  -92.385639511458    -8.636E-07 2.174E-09 3.579E+00
 ETOT 10  -92.385639667464    -1.560E-07 3.786E-09 3.427E+00
 ETOT 11  -92.385639575103     9.236E-08 4.757E-10 3.488E+00
 ETOT 12  -92.385640551987    -9.769E-07 2.162E-09 2.654E+00
 ETOT 13  -92.385640229661     3.223E-07 3.478E-09 2.337E+00
 ETOT 14  -92.385640957922    -7.283E-07 1.668E-09 1.978E+00
 ETOT 15  -92.385640726230     2.317E-07 7.134E-10 2.334E+00
 ETOT 16  -92.385640502495     2.237E-07 1.958E-10 2.515E+00
 ETOT 17  -92.385640571934    -6.944E-08 4.999E-11 2.354E+00
 ETOT 18  -92.385641004822    -4.329E-07 8.773E-10 1.718E+00
 ETOT 19  -92.385641339015    -3.342E-07 1.018E-09 1.173E+00
 ETOT 20  -92.385641194419     1.446E-07 1.564E-09 1.323E+00
 ETOT 21  -92.385641221737    -2.732E-08 7.512E-10 1.374E+00
 ETOT 22  -92.385641179384     4.235E-08 2.100E-10 1.478E+00
 ETOT 23  -92.385641117198     6.219E-08 2.670E-10 1.463E+00
 ETOT 24  -92.385641419892    -3.027E-07 1.384E-09 7.424E-01
 ETOT 25  -92.385641389797     3.010E-08 2.726E-10 7.799E-01
 ETOT 26  -92.385641234976     1.548E-07 5.771E-10 1.279E+00
 ETOT 27  -92.385641271797    -3.682E-08 3.339E-11 1.107E+00
 ETOT 28  -92.385641300151    -2.835E-08 4.963E-11 1.021E+00
 ETOT 29  -92.385641427368    -1.272E-07 3.791E-10 7.066E-01
 ETOT 30  -92.385641376498     5.087E-08 1.104E-10 7.699E-01
 ETOT 31  -92.385641184824     1.917E-07 2.712E-10 9.832E-01
 ETOT 32  -92.385641383677    -1.989E-07 3.857E-10 8.173E-01
 ETOT 33  -92.385641451166    -6.749E-08 2.243E-10 5.769E-01
 ETOT 34  -92.385641457382    -6.215E-09 5.252E-10 5.447E-01
 ETOT 35  -92.385641475630    -1.825E-08 7.695E-11 4.433E-01
 ETOT 36  -92.385641499790    -2.416E-08 1.087E-10 2.999E-01
 ETOT 37  -92.385641500555    -7.650E-10 2.544E-10 3.005E-01
 ETOT 38  -92.385641501923    -1.367E-09 2.452E-11 2.868E-01
 ETOT 39  -92.385641493121     8.802E-09 1.139E-11 2.988E-01
 ETOT 40  -92.385641516628    -2.351E-08 3.807E-10 1.002E+00
 ETOT 41  -92.385641513217     3.411E-09 1.728E-10 4.784E-01
 ETOT 42  -92.385641514696    -1.479E-09 1.261E-10 4.427E-01
 ETOT 43  -92.385641514953    -2.569E-10 2.301E-11 2.252E-01
 ETOT 44  -92.385641507017     7.935E-09 8.717E-11 2.074E-01
 ETOT 45  -92.385641447317     5.970E-08 2.924E-10 2.674E-01
 ETOT 46  -92.385641471903    -2.459E-08 7.914E-10 2.955E-01
 ETOT 47  -92.385641493113    -2.121E-08 1.223E-10 3.246E-01
 ETOT 48  -92.385641389305     1.038E-07 8.067E-10 8.557E-01
 ETOT 49  -92.385641453322    -6.402E-08 1.510E-10 2.151E-01
 ETOT 50  -92.385641434077     1.924E-08 1.578E-10 2.717E-01
 ETOT 51  -92.385641504031    -6.995E-08 1.840E-10 1.526E-01
 ETOT 52  -92.385641504407    -3.759E-10 7.920E-12 1.382E-01
 ETOT 53  -92.385641508808    -4.401E-09 4.727E-12 1.269E-01
 ETOT 54  -92.385641514288    -5.480E-09 1.549E-11 2.004E-01
 ETOT 55  -92.385641510807     3.481E-09 2.675E-11 1.187E-01
 ETOT 56  -92.385641500420     1.039E-08 3.932E-11 1.225E-01
 ETOT 57  -92.385641507520    -7.100E-09 2.606E-11 1.143E-01
 ETOT 58  -92.385641513741    -6.221E-09 1.946E-11 1.086E-01
 ETOT 59  -92.385641507323     6.418E-09 1.097E-11 8.744E-02
 ETOT 60  -92.385641508316    -9.933E-10 1.602E-12 9.844E-02
 ETOT 61  -92.385641512022    -3.706E-09 8.647E-12 8.358E-02
 ETOT 62  -92.385641511563     4.588E-10 2.424E-12 7.486E-02
 ETOT 63  -92.385641512415    -8.518E-10 4.379E-12 7.167E-02
 ETOT 64  -92.385641511849     5.654E-10 1.555E-12 6.011E-02
 ETOT 65  -92.385641509453     2.396E-09 1.481E-12 6.851E-02
 ETOT 66  -92.385641513504    -4.051E-09 5.540E-12 1.028E-01
 ETOT 67  -92.385641513821    -3.163E-10 2.425E-12 1.032E-01
 ETOT 68  -92.385641513716     1.043E-10 4.105E-13 1.058E-01
 ETOT 69  -92.385641511825     1.891E-09 4.802E-12 7.689E-02
 ETOT 70  -92.385641514552    -2.726E-09 9.439E-12 4.386E-02
 ETOT 71  -92.385641512900     1.651E-09 4.701E-12 5.466E-02
 ETOT 72  -92.385641511815     1.085E-09 6.388E-13 5.106E-02
 ETOT 73  -92.385641516988    -5.172E-09 3.610E-11 4.051E-02
 ETOT 74  -92.385641516539     4.487E-10 4.433E-11 5.823E-02
 ETOT 75  -92.385641512283     4.255E-09 1.169E-11 4.113E-02
 ETOT 76  -92.385641520844    -8.560E-09 4.703E-11 1.642E-01
 ETOT 77  -92.385641521371    -5.276E-10 2.946E-11 1.854E-01
 ETOT 78  -92.385641517222     4.149E-09 4.482E-11 4.382E-02
 ETOT 79  -92.385641517064     1.578E-10 1.937E-12 3.971E-02
 ETOT 80  -92.385641515369     1.695E-09 3.374E-12 6.996E-02
 ETOT 81  -92.385641519943    -4.574E-09 2.531E-11 3.320E-02
 ETOT 82  -92.385641519991    -4.771E-11 1.720E-12 3.566E-02
 ETOT 83  -92.385641518783     1.208E-09 2.170E-12 3.720E-02
 ETOT 84  -92.385641517895     8.881E-10 1.174E-12 3.735E-02
 ETOT 85  -92.385641517647     2.480E-10 1.124E-12 4.268E-02
 ETOT 86  -92.385641515840     1.807E-09 2.182E-12 4.715E-02
 ETOT 87  -92.385641513973     1.867E-09 4.266E-12 4.875E-02
 ETOT 88  -92.385641517253    -3.280E-09 3.314E-12 4.781E-02
 ETOT 89  -92.385641518365    -1.112E-09 2.901E-12 4.232E-02
 ETOT 90  -92.385641516550     1.816E-09 3.482E-12 3.223E-02
 ETOT 91  -92.385641512876     3.674E-09 3.750E-11 3.067E-02
 ETOT 92  -92.385641512793     8.268E-11 3.929E-11 6.882E-02
 ETOT 93  -92.385641516668    -3.875E-09 5.387E-11 6.747E-02
 ETOT 94  -92.385641514763     1.905E-09 2.241E-11 8.616E-02
 ETOT 95  -92.385641514744     1.874E-11 2.062E-10 9.894E-01
 ETOT 96  -92.385641519810    -5.066E-09 9.990E-11 5.588E-02
 ETOT 97  -92.385641519753     5.780E-11 3.013E-12 3.492E-02
 ETOT 98  -92.385641517791     1.962E-09 1.098E-11 7.177E-02
 ETOT 99  -92.385641519377    -1.586E-09 9.282E-12 5.334E-02
 ETOT  100  -92.385641512382     6.995E-09 9.547E-11 1.467E-01
 ETOT  101  -92.385641521314    -8.932E-09 1.199E-10 2.037E-02
 ETOT  102  -92.385641518833     2.482E-09 3.961E-11 2.694E-01
 ETOT  103  -92.385641519051    -2.182E-10 2.999E-11 1.757E-01
 ETOT  104  -92.385641521633    -2.582E-09 9.166E-12 5.541E-02
 ETOT  105  -92.385641518975     2.658E-09 3.804E-11 4.687E-02
 ETOT  106  -92.385641521667    -2.692E-09 2.591E-11 2.513E-02
 ETOT  107  -92.385641521721    -5.473E-11 1.640E-12 8.432E-02
 ETOT  108  -92.385641521420     3.013E-10 1.404E-12 2.991E-02
 ETOT  109  -92.385641520299     1.121E-09 1.200E-11 2.597E-03
 ETOT  110  -92.385641521478    -1.179E-09 4.307E-12 2.334E-03
 ETOT  111  -92.385641521553    -7.452E-11 2.216E-13 2.273E-03
 ETOT  112  -92.385641521556    -3.794E-12 1.620E-14 2.009E-03
 
 At SCF step  112, etot is converged : 
  for the second time, diff in etot=  3.794E-12 < toldfe=  1.000E-10
 
 Cartesian components of stress tensor (hartree/bohr^3)
  sigma(1 1)= -2.00863885E-05  sigma(3 2)=  2.50778927E-11
  sigma(2 2)= -2.00863891E-05  sigma(3 1)=  5.28992598E-11
  sigma(3 3)=  1.99870466E-07  sigma(2 1)= -1.03449548E-11
 

--- !ResultsGS
iteration_state: {dtset: 1, itime: 3, icycle: 1, }
comment   : Summary of ground state results
lattice_vectors:
- [  2.9859563,  -5.1718280,   0.0000000, ]
- [  2.9859563,   5.1718280,   0.0000000, ]
- [  0.0000000,   0.0000000,  37.7945227, ]
lattice_lengths: [   5.97191,    5.97191,   37.79452, ]
lattice_angles: [ 90.000,  90.000, 120.000, ] # degrees, (23, 13, 12)
lattice_volume:   1.1673104E+03
convergence: {deltae: -3.794E-12, res2:  2.009E-03, residm:  1.620E-14, diffor: null, }
etotal    :  -9.23856415E+01
entropy   :   0.00000000E+00
fermie    :  -6.39288810E-02
cartesian_stress_tensor: # hartree/bohr^3
- [ -2.00863885E-05,  -1.03449548E-11,   5.28992598E-11, ]
- [ -1.03449548E-11,  -2.00863891E-05,   2.50778927E-11, ]
- [  5.28992598E-11,   2.50778927E-11,   1.99870466E-07, ]
pressure_GPa:   3.9201E-01
xred      :
- [  3.3333E-01,   6.6667E-01,   1.1266E-08, Mo]
- [  6.6667E-01,   3.3333E-01,  -7.8474E-02,  S]
- [  6.6667E-01,   3.3333E-01,   7.8474E-02,  S]
cartesian_forces: # hartree/bohr
- [ -6.00215470E-10,   1.88285100E-09,  -1.96297547E-07, ]
- [  7.72488239E-09,   2.84165474E-09,   4.91970217E-05, ]
- [ -7.12466692E-09,  -4.72450574E-09,  -4.90007242E-05, ]
force_length_stats: {min:   1.96307494E-07, max:   4.91970224E-05, mean:   3.27980183E-05, }
...

 Integrated electronic density in atomic spheres:
 ------------------------------------------------
 Atom  Sphere_radius  Integrated_density
    1        2.00000         10.50121953
    2        2.00000          3.92626954
    3        2.00000          3.92626978
 
---OUTPUT-----------------------------------------------------------------------
 
 Cartesian coordinates (xcart) [bohr]
  2.98595626957658E+00  1.72394263982343E+00  4.25779882276502E-07
  2.98595614872817E+00 -1.72394269810769E+00 -2.96587683284020E+00
  2.98595636941307E+00 -1.72394259369165E+00  2.96587640706032E+00
 Reduced coordinates (xred)
  3.33333335681024E-01  6.66666666664613E-01  1.12656504788429E-08
  6.66666652063265E-01  3.33333309810110E-01 -7.84737211712064E-02
  6.66666678922378E-01  3.33333356858610E-01  7.84737099055560E-02
 Cartesian forces (fcart) [Ha/bohr]; max,rms= 4.91970E-05 2.31456E-05 (free atoms)
 -6.00215470046547E-10  1.88285099658590E-09 -1.96297546529576E-07
  7.72488239409955E-09  2.84165473852904E-09  4.91970217424043E-05
 -7.12466692405300E-09 -4.72450573511494E-09 -4.90007241958747E-05
 Gradient of E wrt nuclear positions in reduced coordinates (gred)
  1.15299985626678E-08 -7.94556427931088E-09  7.41897206996551E-06
 -8.36961154447943E-09 -3.77627103801174E-08 -1.85937795293529E-03
 -3.16038701818835E-09  4.57082746594283E-08  1.85195898086533E-03
 Total energy (etotal) [Ha]= -9.23856415215564E+01
 
 Difference of energy with previous step (new-old):
           Absolute (Ha)=-1.10109E-04
           Relative     =-1.19185E-06
 
 At Broyd/MD step   3, gradients are converged : 
  max grad (force/stress) = 4.9197E-05 < tolmxf= 5.0000E-05 ha/bohr (free atoms)
 
================================================================================
 
 ----iterations are completed or convergence reached----
 
 Mean square residual over all n,k,spin=   26.837E-16; max=  16.195E-15
 reduced coordinates (array xred) for    3 atoms
       0.333333335681      0.666666666665      0.000000011266
       0.666666652063      0.333333309810     -0.078473721171
       0.666666678922      0.333333356859      0.078473709906
 rms dE/dt=  8.7478E-04; max dE/dt=  1.8520E-03; dE/dt below (all hartree)
    1       0.000000020560     -0.000000016621      0.000007419695
    2       0.000000000660     -0.000000046438     -0.001859377230
    3       0.000000005869      0.000000037033      0.001851959704
 
 cartesian coordinates (angstrom) at end:
    1      1.58010000370634     0.91227115391104     0.00000022531301
    2      1.58009993975612    -0.91227118475374    -1.56947442342413
    3      1.58010005653754    -0.91227112949915     1.56947419811112
 
 cartesian forces (hartree/bohr) at end:
    1     -0.00000000060022     0.00000000188285    -0.00000019629755
    2      0.00000000772488     0.00000000284165     0.00004919702174
    3     -0.00000000712467    -0.00000000472451    -0.00004900072420
 frms,max,avg= 2.3145570E-05 4.9197022E-05  -5.942E-11  1.712E-09 -1.912E-11 h/b
 
 cartesian forces (eV/Angstrom) at end:
    1     -0.00000003086432     0.00000009682008    -0.00001009402484
    2      0.00000039722939     0.00000014612375     0.00252981236091
    3     -0.00000036636507    -0.00000024294383    -0.00251971833607
 frms,max,avg= 1.1901930E-03 2.5298124E-03  -3.056E-09  8.802E-08 -9.834E-10 e/A
 length scales=  5.971912525145  5.971912525145 37.794522657713 bohr
              =  3.160200000000  3.160200000000 20.000000000000 angstroms
 prteigrs : about to open file mos2_exp_relx_struco_DS1_EIG
 Fermi (or HOMO) energy (hartree) =  -0.06393   Average Vxc (hartree)=  -0.14305
 Eigenvalues (hartree) for nkpt=  10  k points:
 kpt#   1, nband= 14, wtk=  0.06250, kpt=  0.0000  0.0000  0.5000 (reduced coord)
  -2.29741   -1.34744   -1.33898   -1.33898   -0.58103   -0.53350   -0.26917   -0.15533
  -0.15533   -0.12920   -0.11434   -0.11434   -0.06393    0.04246
 prteigrs : prtvol=0 or 1, do not print more k-points.
 

--- !EnergyTerms
iteration_state     : {dtset: 1, itime: 3, icycle: 1, }
comment             : Components of total free energy in Hartree
kinetic             :  2.99927627748119E+01
hartree             :  2.82670338795619E+02
xc                  : -1.66142201673128E+01
Ewald energy        :  2.06435961040803E+02
psp_core            :  7.58198985105847E-01
local_psp           : -6.07239524713779E+02
non_local_psp       :  1.16108417631954E+01
total_energy        : -9.23856415215564E+01
total_energy_eV     : -2.51394115459542E+03
band_energy         : -1.70967764699859E+01
...

 rms coord change=  3.6594E-04   atom, delta coord (reduced):
     1        0.000000002348     -0.000000000002      0.000000011266
     2       -0.000000014603     -0.000000023523      0.000776278829
     3        0.000000012256      0.000000023525     -0.000776290094
 
 Cartesian components of stress tensor (hartree/bohr^3)
  sigma(1 1)= -2.00863885E-05  sigma(3 2)=  2.50778927E-11
  sigma(2 2)= -2.00863891E-05  sigma(3 1)=  5.28992598E-11
  sigma(3 3)=  1.99870466E-07  sigma(2 1)= -1.03449548E-11
 
-Cartesian components of stress tensor (GPa)         [Pressure=  3.9201E-01 GPa]
- sigma(1 1)= -5.90961852E-01  sigma(3 2)=  7.37816953E-07
- sigma(2 2)= -5.90961870E-01  sigma(3 1)=  1.55634969E-06
- sigma(3 3)=  5.88039113E-03  sigma(2 1)= -3.04359028E-07
 
================================================================================
== DATASET  2 ==================================================================
-   mpi_nproc: 80, omp_nthreads: -1 (-1 if OMP is not activated)
-    --> not optimal distribution: autoparal keyword recommended in input file <--
 

--- !DatasetInfo
iteration_state: {dtset: 2, }
dimensions: {natom: 3, nkpt: 32, mband: 14, nsppol: 1, nspinor: 1, nspden: 1, mpw: 46264, }
cutoff_energies: {ecut:  80.0, pawecutdg:  -1.0, }
electrons: {nelect:   2.60000000E+01, charge:   0.00000000E+00, occopt:   1.00000000E+00, tsmear:   1.00000000E-02, }
meta: {optdriver: 0, ionmov: 2, optcell: 0, iscf: 7, paral_kgb: 0, }
...

 Exchange-correlation functional for the present dataset will be:
  GGA: Perdew-Burke-Ernzerhof functional - ixc=11
 Citation for XC functional:
  J.P.Perdew, K.Burke, M.Ernzerhof, PRL 77, 3865 (1996)
 
 Real(R)+Recip(G) space primitive vectors, cartesian coordinates (Bohr,Bohr^-1):
 R(1)=  2.9859563 -5.1718280  0.0000000  G(1)=  0.1674505 -0.0966776  0.0000000
 R(2)=  2.9859563  5.1718280  0.0000000  G(2)=  0.1674505  0.0966776  0.0000000
 R(3)=  0.0000000  0.0000000 37.7945227  G(3)=  0.0000000  0.0000000  0.0264589
 Unit cell volume ucvol=  1.1673104E+03 bohr^3
 Angles (23,13,12)=  9.00000000E+01  9.00000000E+01  1.20000000E+02 degrees
 
 getcut: wavevector=  0.0000  0.0000  0.0000  ngfft=  54  54 320
         ecut(hartree)=     88.200   => boxcut(ratio)=   2.00273
--------------------------------------------------------------------------------
 
_setup2: Arith. and geom. avg. npw (full set) are   46184.188   46184.162
 
================================================================================
 
=== [ionmov= 2] Broyden-Fletcher-Goldfard-Shanno method (forces)            
================================================================================
 
--- Iteration: (   1/1000) Internal Cycle: (1/1)
--------------------------------------------------------------------------------
 
---SELF-CONSISTENT-FIELD CONVERGENCE--------------------------------------------

--- !BeginCycle
iteration_state: {dtset: 2, itime: 1, icycle: 1, }
solver: {iscf: 7, nstep: 150, nline: 4, wfoptalg: 0, }
tolerances: {toldfe: 1.00E-10, }
...
 
     iter   Etot(hartree)      deltaE(h)  residm     vres2
 ETOT  1  -91.721559616307    -9.172E+01 1.979E-01 2.536E+04
 ETOT  2  -89.151064470999     2.570E+00 7.432E-02 2.125E+05
 ETOT  3  -92.338359945631    -3.187E+00 4.110E-02 4.421E+03
 ETOT  4  -92.365139211129    -2.678E-02 1.044E-02 2.838E+03
 ETOT  5  -92.375002497771    -9.863E-03 4.098E-03 1.668E+03
 ETOT  6  -92.378347598806    -3.345E-03 1.905E-03 1.175E+03
 ETOT  7  -92.381138222951    -2.791E-03 6.634E-04 7.191E+02
 ETOT  8  -92.382857144866    -1.719E-03 5.600E-04 3.541E+02
 ETOT  9  -92.383122251346    -2.651E-04 6.775E-04 2.708E+02
 ETOT 10  -92.383250681390    -1.284E-04 4.551E-04 2.154E+02
 ETOT 11  -92.383351182892    -1.005E-04 6.202E-04 1.609E+02
 ETOT 12  -92.383387112653    -3.593E-05 5.007E-04 1.264E+02
 ETOT 13  -92.383382517106     4.596E-06 5.173E-04 1.262E+02
 ETOT 14  -92.383387329354    -4.812E-06 4.954E-04 1.159E+02
 ETOT 15  -92.383401217184    -1.389E-05 4.419E-04 9.812E+01
 ETOT 16  -92.383406644589    -5.427E-06 4.391E-04 9.123E+01
 ETOT 17  -92.383406660306    -1.572E-08 3.716E-04 8.952E+01
 ETOT 18  -92.383408040100    -1.380E-06 3.532E-04 8.741E+01
 ETOT 19  -92.383408858459    -8.184E-07 2.860E-04 8.414E+01
 ETOT 20  -92.383408046210     8.122E-07 2.627E-04 8.355E+01
 ETOT 21  -92.383409587657    -1.541E-06 2.063E-04 7.807E+01
 ETOT 22  -92.383409620388    -3.273E-08 1.843E-04 7.753E+01
 ETOT 23  -92.383409496577     1.238E-07 1.415E-04 7.893E+01
 ETOT 24  -92.383409376762     1.198E-07 1.243E-04 7.790E+01
 ETOT 25  -92.383408949833     4.269E-07 9.400E-05 7.911E+01
 ETOT 26  -92.383409876988    -9.272E-07 8.839E-05 7.751E+01
 ETOT 27  -92.383408558495     1.318E-06 6.742E-05 7.752E+01
 ETOT 28  -92.383410862851    -2.304E-06 8.103E-05 7.475E+01
 ETOT 29  -92.383407855865     3.007E-06 6.320E-05 7.219E+01
 ETOT 30  -92.383413488041    -5.632E-06 7.242E-05 6.665E+01
 ETOT 31  -92.383412272368     1.216E-06 5.737E-05 6.581E+01
 ETOT 32  -92.383417374821    -5.102E-06 6.359E-05 5.688E+01
 ETOT 33  -92.383416902520     4.723E-07 5.140E-05 5.481E+01
 ETOT 34  -92.383416845740     5.678E-08 5.482E-05 5.392E+01
 ETOT 35  -92.383416999968    -1.542E-07 4.495E-05 5.234E+01
 ETOT 36  -92.383416914260     8.571E-08 4.717E-05 5.148E+01
 ETOT 37  -92.383417289545    -3.753E-07 3.913E-05 5.154E+01
 ETOT 38  -92.383417420480    -1.309E-07 6.691E-05 5.106E+01
 ETOT 39  -92.383414773463     2.647E-06 3.337E-05 5.061E+01
 ETOT 40  -92.383418047571    -3.274E-06 4.161E-05 4.896E+01
 ETOT 41  -92.383418143057    -9.549E-08 2.700E-05 4.889E+01
 ETOT 42  -92.383418087919     5.514E-08 2.841E-05 4.885E+01
 ETOT 43  -92.383419871650    -1.784E-06 1.871E-05 4.519E+01
 ETOT 44  -92.383418581229     1.290E-06 2.076E-05 4.489E+01
 ETOT 45  -92.383418344542     2.367E-07 1.515E-05 4.396E+01
 ETOT 46  -92.383418645927    -3.014E-07 1.190E-05 4.389E+01
 ETOT 47  -92.383418318268     3.277E-07 1.315E-05 4.427E+01
 ETOT 48  -92.383419073431    -7.552E-07 8.872E-06 4.383E+01
 ETOT 49  -92.383419295939    -2.225E-07 1.086E-05 4.355E+01
 ETOT 50  -92.383419271921     2.402E-08 7.033E-06 4.336E+01
 ETOT 51  -92.383421501625    -2.230E-06 8.560E-06 3.594E+01
 ETOT 52  -92.383420444046     1.058E-06 5.630E-06 3.983E+01
 ETOT 53  -92.383420537470    -9.342E-08 6.925E-06 3.937E+01
 ETOT 54  -92.383420319257     2.182E-07 4.501E-06 3.923E+01
 ETOT 55  -92.383420840830    -5.216E-07 5.577E-06 3.645E+01
 ETOT 56  -92.383421203271    -3.624E-07 3.595E-06 3.613E+01
 ETOT 57  -92.383421007934     1.953E-07 4.509E-06 3.632E+01
 ETOT 58  -92.383419143014     1.865E-06 2.854E-06 3.712E+01
 ETOT 59  -92.383421954481    -2.811E-06 3.473E-06 3.383E+01
 ETOT 60  -92.383420099497     1.855E-06 2.280E-06 3.488E+01
 ETOT 61  -92.383421006408    -9.069E-07 2.515E-06 3.027E+01
 ETOT 62  -92.383421850791    -8.444E-07 1.820E-06 3.154E+01
 ETOT 63  -92.383421070051     7.807E-07 2.149E-06 3.153E+01
 ETOT 64  -92.383420679112     3.909E-07 1.428E-06 3.172E+01
 ETOT 65  -92.383420420764     2.583E-07 1.769E-06 3.175E+01
 ETOT 66  -92.383420522458    -1.017E-07 1.144E-06 3.149E+01
 ETOT 67  -92.383419959563     5.629E-07 1.469E-06 3.120E+01
 ETOT 68  -92.383420856840    -8.973E-07 9.127E-07 2.989E+01
 ETOT 69  -92.383422819942    -1.963E-06 1.072E-06 2.855E+01
 ETOT 70  -92.383423021123    -2.012E-07 8.407E-07 2.702E+01
 ETOT 71  -92.383416711468     6.310E-06 1.159E-06 3.048E+01
 ETOT 72  -92.383423214655    -6.503E-06 8.984E-07 2.639E+01
 ETOT 73  -92.383421634366     1.580E-06 9.326E-07 2.756E+01
 ETOT 74  -92.383420128090     1.506E-06 7.770E-07 2.775E+01
 ETOT 75  -92.383423230300    -3.102E-06 6.133E-07 2.407E+01
 ETOT 76  -92.383422578034     6.523E-07 6.935E-07 2.417E+01
 ETOT 77  -92.383423259360    -6.813E-07 4.792E-07 2.281E+01
 ETOT 78  -92.383423016083     2.433E-07 6.539E-07 2.265E+01
 ETOT 79  -92.383423895013    -8.789E-07 3.626E-07 2.137E+01
 ETOT 80  -92.383423476144     4.189E-07 5.914E-07 2.179E+01
 ETOT 81  -92.383422325076     1.151E-06 3.914E-07 2.157E+01
 ETOT 82  -92.383423577221    -1.252E-06 5.727E-07 2.020E+01
 ETOT 83  -92.383422883178     6.940E-07 3.738E-07 1.874E+01
 ETOT 84  -92.383423786993    -9.038E-07 5.482E-07 1.774E+01
 ETOT 85  -92.383423912311    -1.253E-07 3.436E-07 1.738E+01
 ETOT 86  -92.383424013613    -1.013E-07 5.123E-07 1.669E+01
 ETOT 87  -92.383424225825    -2.122E-07 3.221E-07 1.586E+01
 ETOT 88  -92.383424604990    -3.792E-07 5.024E-07 1.520E+01
 ETOT 89  -92.383423894303     7.107E-07 3.082E-07 1.608E+01
 ETOT 90  -92.383424215203    -3.209E-07 4.745E-07 1.580E+01
 ETOT 91  -92.383424408343    -1.931E-07 2.845E-07 1.521E+01
 ETOT 92  -92.383424432720    -2.438E-08 4.436E-07 1.496E+01
 ETOT 93  -92.383424597154    -1.644E-07 2.664E-07 1.448E+01
 ETOT 94  -92.383424222721     3.744E-07 3.987E-07 1.369E+01
 ETOT 95  -92.383424292270    -6.955E-08 2.576E-07 1.334E+01
 ETOT 96  -92.383424908216    -6.159E-07 3.983E-07 1.245E+01
 ETOT 97  -92.383424467946     4.403E-07 2.476E-07 1.233E+01
 ETOT 98  -92.383424726849    -2.589E-07 3.733E-07 1.190E+01
 ETOT 99  -92.383424575349     1.515E-07 2.327E-07 1.146E+01
 ETOT  100  -92.383424602979    -2.763E-08 3.495E-07 1.186E+01
 ETOT  101  -92.383424921410    -3.184E-07 2.181E-07 1.075E+01
 ETOT  102  -92.383424962533    -4.112E-08 3.310E-07 1.039E+01
 ETOT  103  -92.383425045231    -8.270E-08 2.040E-07 1.031E+01
 ETOT  104  -92.383424896081     1.491E-07 3.056E-07 9.990E+00
 ETOT  105  -92.383424357433     5.386E-07 1.955E-07 1.084E+01
 ETOT  106  -92.383425209343    -8.519E-07 3.084E-07 1.043E+01
 ETOT  107  -92.383425000977     2.084E-07 1.853E-07 1.006E+01
 ETOT  108  -92.383425102270    -1.013E-07 2.877E-07 9.585E+00
 ETOT  109  -92.383425074374     2.790E-08 1.715E-07 9.661E+00
 ETOT  110  -92.383425179874    -1.055E-07 2.669E-07 8.579E+00
 ETOT  111  -92.383425311884    -1.320E-07 1.651E-07 7.668E+00
 ETOT  112  -92.383425358000    -4.612E-08 2.494E-07 7.733E+00
 ETOT  113  -92.383425498979    -1.410E-07 1.551E-07 7.522E+00
 ETOT  114  -92.383425617589    -1.186E-07 2.407E-07 7.459E+00
 ETOT  115  -92.383425678040    -6.045E-08 1.467E-07 6.766E+00
 ETOT  116  -92.383425377285     3.008E-07 2.212E-07 8.387E+00
 ETOT  117  -92.383425395835    -1.855E-08 1.425E-07 8.444E+00
 ETOT  118  -92.383425347458     4.838E-08 2.020E-07 8.486E+00
 ETOT  119  -92.383425364661    -1.720E-08 1.340E-07 8.407E+00
 ETOT  120  -92.383425439395    -7.473E-08 1.900E-07 7.647E+00
 ETOT  121  -92.383425400109     3.929E-08 1.275E-07 7.677E+00
 ETOT  122  -92.383425005985     3.941E-07 1.719E-07 7.872E+00
 ETOT  123  -92.383425441338    -4.354E-07 1.194E-07 7.581E+00
 ETOT  124  -92.383425423762     1.758E-08 1.667E-07 7.618E+00
 ETOT  125  -92.383425533684    -1.099E-07 1.124E-07 7.295E+00
 ETOT  126  -92.383425676806    -1.431E-07 1.618E-07 6.614E+00
 ETOT  127  -92.383425648892     2.791E-08 1.059E-07 6.614E+00
 ETOT  128  -92.383425580476     6.842E-08 1.485E-07 6.622E+00
 ETOT  129  -92.383425489925     9.055E-08 1.008E-07 6.833E+00
 ETOT  130  -92.383425535649    -4.572E-08 1.401E-07 6.707E+00
 ETOT  131  -92.383425560179    -2.453E-08 9.485E-08 6.613E+00
 ETOT  132  -92.383425596117    -3.594E-08 1.323E-07 6.573E+00
 ETOT  133  -92.383425657027    -6.091E-08 8.871E-08 6.507E+00
 ETOT  134  -92.383425661377    -4.349E-09 1.244E-07 6.391E+00
 ETOT  135  -92.383424946797     7.146E-07 8.746E-08 7.127E+00
 ETOT  136  -92.383425734166    -7.874E-07 1.240E-07 6.244E+00
 ETOT  137  -92.383425561859     1.723E-07 8.561E-08 6.894E+00
 ETOT  138  -92.383425640037    -7.818E-08 1.177E-07 6.529E+00
 ETOT  139  -92.383425600690     3.935E-08 7.742E-08 6.562E+00
 ETOT  140  -92.383425559876     4.081E-08 1.087E-07 6.504E+00
 ETOT  141  -92.383425526682     3.319E-08 7.063E-08 6.550E+00
 ETOT  142  -92.383426162909    -6.362E-07 9.692E-08 3.884E+00
 ETOT  143  -92.383426173154    -1.025E-08 1.046E-07 3.924E+00
 ETOT  144  -92.383425910856     2.623E-07 7.652E-08 4.589E+00
 ETOT  145  -92.383425932651    -2.180E-08 9.698E-08 4.161E+00
 ETOT  146  -92.383425921357     1.129E-08 6.738E-08 4.392E+00
 ETOT  147  -92.383425937649    -1.629E-08 8.853E-08 4.283E+00
 ETOT  148  -92.383425890891     4.676E-08 6.085E-08 4.103E+00
 ETOT  149  -92.383425605570     2.853E-07 8.202E-08 4.410E+00
 ETOT  150  -92.383425674339    -6.877E-08 5.716E-08 4.097E+00
 
 Cartesian components of stress tensor (hartree/bohr^3)
  sigma(1 1)= -1.42869320E-05  sigma(3 2)= -5.32712676E-11
  sigma(2 2)= -1.43554976E-05  sigma(3 1)= -3.40839009E-11
  sigma(3 3)=  2.24244591E-05  sigma(2 1)=  1.31043675E-11
 
 
 scprqt:  WARNING -
  nstep=  150 was not enough SCF cycles to converge;
  maximum energy difference=  6.877E-08 exceeds toldfe=  1.000E-10
 

--- !ResultsGS
iteration_state: {dtset: 2, itime: 1, icycle: 1, }
comment   : Summary of ground state results
lattice_vectors:
- [  2.9859563,  -5.1718280,   0.0000000, ]
- [  2.9859563,   5.1718280,   0.0000000, ]
- [  0.0000000,   0.0000000,  37.7945227, ]
lattice_lengths: [   5.97191,    5.97191,   37.79452, ]
lattice_angles: [ 90.000,  90.000, 120.000, ] # degrees, (23, 13, 12)
lattice_volume:   1.1673104E+03
convergence: {deltae: -6.877E-08, res2:  4.097E+00, residm:  5.716E-08, diffor: null, }
etotal    :  -9.23834257E+01
entropy   :   0.00000000E+00
fermie    :  -6.46770826E-02
cartesian_stress_tensor: # hartree/bohr^3
- [ -1.42869320E-05,   1.31043675E-11,  -3.40839009E-11, ]
- [  1.31043675E-11,  -1.43554976E-05,  -5.32712676E-11, ]
- [ -3.40839009E-11,  -5.32712676E-11,   2.24244591E-05, ]
pressure_GPa:   6.0980E-02
xred      :
- [  3.3333E-01,   6.6667E-01,   0.0000E+00, Mo]
- [  6.6667E-01,   3.3333E-01,  -7.9250E-02,  S]
- [  6.6667E-01,   3.3333E-01,   7.9250E-02,  S]
cartesian_forces: # hartree/bohr
- [  1.93163446E-08,  -1.12288126E-05,  -6.36638123E-07, ]
- [  2.17217376E-08,   5.61903160E-06,   5.09377180E-03, ]
- [ -4.10380822E-08,   5.60978099E-06,  -5.09313516E-03, ]
force_length_stats: {min:   1.12468624E-05, max:   5.09377490E-03, mean:   3.39938667E-03, }
...

 Integrated electronic density in atomic spheres:
 ------------------------------------------------
 Atom  Sphere_radius  Integrated_density
    1        2.00000         10.49135252
    2        2.00000          3.92500979
    3        2.00000          3.92501114
 
---OUTPUT-----------------------------------------------------------------------
 
 Cartesian coordinates (xcart) [bohr]
  2.98595626257260E+00  1.72394265197591E+00  0.00000000000000E+00
  2.98595626257260E+00 -1.72394265197591E+00 -2.99521592062374E+00
  2.98595626257260E+00 -1.72394265197591E+00  2.99521592062374E+00
 Reduced coordinates (xred)
  3.33333333333333E-01  6.66666666666667E-01  0.00000000000000E+00
  6.66666666666667E-01  3.33333333333333E-01 -7.92500000000000E-02
  6.66666666666667E-01  3.33333333333333E-01  7.92500000000000E-02
 Cartesian forces (fcart) [Ha/bohr]; max,rms= 5.09377E-03 2.40108E-03 (free atoms)
  1.93163446291566E-08 -1.12288125875253E-05 -6.36638122780565E-07
  2.17217375976001E-08  5.61903159558010E-06  5.09377180091468E-03
 -4.10380822267566E-08  5.60978099194517E-06 -5.09313516279190E-03
 Gradient of E wrt nuclear positions in reduced coordinates (gred)
 -5.81311646122517E-05  5.80158090918208E-05  2.40614339561939E-05
  2.89958045328488E-05 -2.91255248496758E-05 -1.92516673742889E-01
  2.91353600794029E-05 -2.88902842421450E-05  1.92492612308932E-01
 Total energy (etotal) [Ha]= -9.23834256743393E+01
 
--- Iteration: (   2/1000) Internal Cycle: (1/1)
--------------------------------------------------------------------------------
 
---SELF-CONSISTENT-FIELD CONVERGENCE--------------------------------------------

--- !BeginCycle
iteration_state: {dtset: 2, itime: 2, icycle: 1, }
solver: {iscf: 7, nstep: 150, nline: 4, wfoptalg: 0, }
tolerances: {toldfe: 1.00E-10, }
...
 
     iter   Etot(hartree)      deltaE(h)  residm     vres2
 ETOT  1  -92.383448346015    -9.238E+01 5.845E-07 9.974E+01
 ETOT  2  -92.383457269942    -8.924E-06 1.669E-07 1.207E+00
 ETOT  3  -92.383418571551     3.870E-05 5.894E-07 4.847E+00
 ETOT  4  -92.383465097746    -4.653E-05 6.774E-07 5.188E-01
 ETOT  5  -92.383470120616    -5.023E-06 3.405E-08 1.773E-01
 ETOT  6  -92.383470437345    -3.167E-07 5.172E-08 2.783E-01
 ETOT  7  -92.383470354958     8.239E-08 5.194E-08 2.562E-01
 ETOT  8  -92.383470432548    -7.759E-08 4.109E-08 2.229E-01
 ETOT  9  -92.383470825752    -3.932E-07 3.156E-08 1.499E-01
 ETOT 10  -92.383471090028    -2.643E-07 3.399E-08 9.163E-02
 ETOT 11  -92.383471096996    -6.968E-09 3.156E-08 8.212E-02
 ETOT 12  -92.383470564459     5.325E-07 2.964E-08 6.579E-02
 ETOT 13  -92.383471016104    -4.516E-07 2.566E-08 4.763E-02
 ETOT 14  -92.383471094077    -7.797E-08 8.526E-08 7.122E-02
 ETOT 15  -92.383471097459    -3.381E-09 2.415E-08 3.831E-02
 ETOT 16  -92.383471100192    -2.733E-09 4.140E-08 4.803E-02
 ETOT 17  -92.383471117658    -1.747E-08 1.917E-08 5.969E-02
 ETOT 18  -92.383471115791     1.867E-09 3.234E-08 6.355E-02
 ETOT 19  -92.383471116366    -5.743E-10 1.829E-08 5.936E-02
 ETOT 20  -92.383471110021     6.345E-09 2.466E-08 6.633E-02
 ETOT 21  -92.383471110447    -4.261E-10 1.684E-08 6.591E-02
 ETOT 22  -92.383471030390     8.006E-08 2.372E-08 9.488E-02
 ETOT 23  -92.383471046497    -1.611E-08 1.516E-08 7.549E-02
 ETOT 24  -92.383471058282    -1.179E-08 2.021E-08 5.896E-02
 ETOT 25  -92.383471110606    -5.232E-08 1.648E-08 4.269E-02
 ETOT 26  -92.383471113003    -2.397E-09 1.822E-08 4.707E-02
 ETOT 27  -92.383471110579     2.424E-09 1.450E-08 4.743E-02
 ETOT 28  -92.383471112051    -1.472E-09 1.664E-08 4.834E-02
 ETOT 29  -92.383471118000    -5.949E-09 1.418E-08 4.102E-02
 ETOT 30  -92.383471119288    -1.288E-09 1.571E-08 3.948E-02
 ETOT 31  -92.383471120764    -1.475E-09 1.340E-08 4.138E-02
 ETOT 32  -92.383471119588     1.176E-09 1.467E-08 4.395E-02
 ETOT 33  -92.383471123363    -3.775E-09 1.259E-08 3.883E-02
 ETOT 34  -92.383471121079     2.284E-09 1.311E-08 3.502E-02
 ETOT 35  -92.383471124778    -3.700E-09 1.150E-08 3.948E-02
 ETOT 36  -92.383471125976    -1.198E-09 1.282E-08 3.503E-02
 ETOT 37  -92.383471125549     4.270E-10 1.000E-08 4.089E-02
 ETOT 38  -92.383471123728     1.822E-09 1.271E-08 4.245E-02
 ETOT 39  -92.383471127311    -3.584E-09 9.697E-09 3.634E-02
 ETOT 40  -92.383471126785     5.267E-10 1.215E-08 3.974E-02
 ETOT 41  -92.383471126719     6.558E-11 9.051E-09 3.821E-02
 ETOT 42  -92.383471127063    -3.437E-10 1.150E-08 3.798E-02
 ETOT 43  -92.383471129280    -2.218E-09 8.796E-09 4.412E-02
 ETOT 44  -92.383471129326    -4.590E-11 1.083E-08 4.175E-02
 ETOT 45  -92.383471128666     6.605E-10 7.988E-09 4.083E-02
 ETOT 46  -92.383471129018    -3.527E-10 1.012E-08 4.324E-02
 ETOT 47  -92.383471127993     1.026E-09 7.432E-09 4.848E-02
 ETOT 48  -92.383471127058     9.345E-10 9.899E-09 4.454E-02
 ETOT 49  -92.383471127599    -5.407E-10 7.500E-09 3.696E-02
 ETOT 50  -92.383471126917     6.817E-10 9.420E-09 3.757E-02
 ETOT 51  -92.383471126701     2.159E-10 6.959E-09 3.723E-02
 ETOT 52  -92.383471126175     5.264E-10 8.879E-09 3.716E-02
 ETOT 53  -92.383471119865     6.309E-09 6.023E-09 4.088E-02
 ETOT 54  -92.383471127715    -7.850E-09 7.923E-09 3.735E-02
 ETOT 55  -92.383471128150    -4.342E-10 6.192E-09 3.691E-02
 ETOT 56  -92.383471127294     8.560E-10 7.848E-09 3.785E-02
 ETOT 57  -92.383471127433    -1.398E-10 5.827E-09 3.661E-02
 ETOT 58  -92.383471127623    -1.895E-10 7.512E-09 3.598E-02
 ETOT 59  -92.383471126165     1.458E-09 5.367E-09 3.728E-02
 ETOT 60  -92.383471127846    -1.681E-09 6.954E-09 3.541E-02
 ETOT 61  -92.383471127738     1.077E-10 5.169E-09 3.542E-02
 ETOT 62  -92.383471122669     5.069E-09 7.172E-09 3.780E-02
 ETOT 63  -92.383471128339    -5.670E-09 5.171E-09 3.563E-02
 ETOT 64  -92.383471125888     2.451E-09 6.719E-09 3.692E-02
 ETOT 65  -92.383471127480    -1.592E-09 4.800E-09 3.745E-02
 ETOT 66  -92.383471127800    -3.197E-10 6.042E-09 3.531E-02
 ETOT 67  -92.383471127759     4.091E-11 4.428E-09 3.291E-02
 ETOT 68  -92.383471127441     3.176E-10 5.720E-09 3.470E-02
 ETOT 69  -92.383471126767     6.740E-10 4.100E-09 3.352E-02
 ETOT 70  -92.383471127904    -1.136E-09 5.252E-09 3.317E-02
 ETOT 71  -92.383471126392     1.511E-09 3.763E-09 3.621E-02
 ETOT 72  -92.383471125757     6.350E-10 5.170E-09 3.663E-02
 ETOT 73  -92.383471127416    -1.659E-09 3.691E-09 3.725E-02
 ETOT 74  -92.383471127502    -8.616E-11 4.798E-09 3.422E-02
 ETOT 75  -92.383471126663     8.388E-10 3.426E-09 2.657E-02
 ETOT 76  -92.383471127292    -6.284E-10 4.551E-09 3.031E-02
 ETOT 77  -92.383471127511    -2.196E-10 3.215E-09 2.558E-02
 ETOT 78  -92.383471129069    -1.558E-09 4.392E-09 2.598E-02
 ETOT 79  -92.383471128927     1.427E-10 3.257E-09 2.503E-02
 ETOT 80  -92.383471128574     3.528E-10 4.202E-09 2.637E-02
 ETOT 81  -92.383471126882     1.692E-09 2.872E-09 2.811E-02
 ETOT 82  -92.383471128737    -1.855E-09 3.793E-09 2.077E-02
 ETOT 83  -92.383471127110     1.628E-09 2.680E-09 2.352E-02
 ETOT 84  -92.383471126996     1.134E-10 3.755E-09 2.398E-02
 ETOT 85  -92.383471127157    -1.603E-10 2.582E-09 2.507E-02
 ETOT 86  -92.383471127180    -2.319E-11 3.584E-09 2.522E-02
 ETOT 87  -92.383471128069    -8.887E-10 2.661E-09 2.596E-02
 ETOT 88  -92.383471124938     3.131E-09 3.688E-09 2.781E-02
 ETOT 89  -92.383471126625    -1.688E-09 2.499E-09 3.146E-02
 ETOT 90  -92.383471126659    -3.392E-11 3.308E-09 2.799E-02
 ETOT 91  -92.383471126311     3.483E-10 2.264E-09 3.092E-02
 ETOT 92  -92.383471126399    -8.802E-11 3.173E-09 1.764E-02
 ETOT 93  -92.383471126549    -1.500E-10 2.134E-09 1.885E-02
 ETOT 94  -92.383471124850     1.699E-09 3.128E-09 1.811E-02
 ETOT 95  -92.383471127253    -2.403E-09 2.038E-09 1.972E-02
 ETOT 96  -92.383471128357    -1.104E-09 2.688E-09 2.208E-02
 ETOT 97  -92.383471129528    -1.171E-09 1.836E-09 2.788E-02
 ETOT 98  -92.383471129427     1.017E-10 2.728E-09 3.566E-02
 ETOT 99  -92.383471129587    -1.607E-10 1.656E-09 3.878E-02
 ETOT  100  -92.383471127250     2.338E-09 2.440E-09 2.518E-02
 ETOT  101  -92.383471128291    -1.041E-09 1.748E-09 1.951E-02
 ETOT  102  -92.383471128208     8.311E-11 2.271E-09 2.151E-02
 ETOT  103  -92.383471128685    -4.769E-10 1.563E-09 2.302E-02
 ETOT  104  -92.383471129331    -6.464E-10 2.173E-09 2.659E-02
 ETOT  105  -92.383471129691    -3.595E-10 1.484E-09 2.775E-02
 ETOT  106  -92.383471129209     4.817E-10 1.936E-09 1.944E-02
 ETOT  107  -92.383471127945     1.264E-09 1.410E-09 1.915E-02
 ETOT  108  -92.383471129268    -1.323E-09 1.772E-09 1.735E-02
 ETOT  109  -92.383471128628     6.397E-10 1.392E-09 1.903E-02
 ETOT  110  -92.383471128752    -1.239E-10 1.718E-09 1.801E-02
 ETOT  111  -92.383471128701     5.166E-11 1.353E-09 1.836E-02
 ETOT  112  -92.383471128402     2.987E-10 1.680E-09 1.850E-02
 ETOT  113  -92.383471128705    -3.032E-10 1.302E-09 1.886E-02
 ETOT  114  -92.383471128315     3.896E-10 1.587E-09 1.990E-02
 ETOT  115  -92.383471128765    -4.492E-10 1.199E-09 1.787E-02
 ETOT  116  -92.383471129890    -1.125E-09 1.567E-09 1.401E-02
 ETOT  117  -92.383471130145    -2.546E-10 1.118E-09 1.502E-02
 ETOT  118  -92.383471128956     1.188E-09 1.502E-09 1.773E-02
 ETOT  119  -92.383471129402    -4.457E-10 1.067E-09 1.546E-02
 ETOT  120  -92.383471130357    -9.546E-10 1.361E-09 2.018E-02
 ETOT  121  -92.383471130282     7.508E-11 9.912E-10 2.293E-02
 ETOT  122  -92.383471129864     4.176E-10 1.244E-09 1.961E-02
 ETOT  123  -92.383471129715     1.490E-10 8.986E-10 2.128E-02
 ETOT  124  -92.383471129718    -2.586E-12 1.187E-09 2.135E-02
 ETOT  125  -92.383471129644     7.313E-11 8.945E-10 1.590E-02
 
 At SCF step  125, etot is converged : 
  for the second time, diff in etot=  7.313E-11 < toldfe=  1.000E-10
 
 Cartesian components of stress tensor (hartree/bohr^3)
  sigma(1 1)= -1.57468327E-05  sigma(3 2)= -1.81946154E-12
  sigma(2 2)= -1.58165245E-05  sigma(3 1)= -1.45047294E-11
  sigma(3 3)=  1.99808263E-05  sigma(2 1)= -2.44797106E-12
 

--- !ResultsGS
iteration_state: {dtset: 2, itime: 2, icycle: 1, }
comment   : Summary of ground state results
lattice_vectors:
- [  2.9859563,  -5.1718280,   0.0000000, ]
- [  2.9859563,   5.1718280,   0.0000000, ]
- [  0.0000000,   0.0000000,  37.7945227, ]
lattice_lengths: [   5.97191,    5.97191,   37.79452, ]
lattice_angles: [ 90.000,  90.000, 120.000, ] # degrees, (23, 13, 12)
lattice_volume:   1.1673104E+03
convergence: {deltae:  7.313E-11, res2:  1.590E-02, residm:  8.945E-10, diffor: null, }
etotal    :  -9.23834711E+01
entropy   :   0.00000000E+00
fermie    :  -6.28136578E-02
cartesian_stress_tensor: # hartree/bohr^3
- [ -1.57468327E-05,  -2.44797106E-12,  -1.45047294E-11, ]
- [ -2.44797106E-12,  -1.58165245E-05,  -1.81946154E-12, ]
- [ -1.45047294E-11,  -1.81946154E-12,   1.99808263E-05, ]
pressure_GPa:   1.1359E-01
xred      :
- [  3.3333E-01,   6.6667E-01,  -1.6845E-08, Mo]
- [  6.6667E-01,   3.3333E-01,  -7.9115E-02,  S]
- [  6.6667E-01,   3.3333E-01,   7.9115E-02,  S]
cartesian_forces: # hartree/bohr
- [ -5.22198393E-09,  -7.89464476E-06,   3.24931681E-07, ]
- [  7.33814639E-10,   3.94689921E-06,   3.92628791E-03, ]
- [  4.48816929E-09,   3.94774555E-06,  -3.92661284E-03, ]
force_length_stats: {min:   7.90133050E-06, max:   3.92661482E-03, mean:   2.62026868E-03, }
...

 Integrated electronic density in atomic spheres:
 ------------------------------------------------
 Atom  Sphere_radius  Integrated_density
    1        2.00000         10.49231312
    2        2.00000          3.92816950
    3        2.00000          3.92816911
 
---OUTPUT-----------------------------------------------------------------------
 
 Cartesian coordinates (xcart) [bohr]
  2.98595628188895E+00  1.72393142316332E+00 -6.36638122780810E-07
  2.98595628429434E+00 -1.72393703294431E+00 -2.99012214882283E+00
  2.98595622153452E+00 -1.72393704219491E+00  2.99012278546095E+00
 Reduced coordinates (xred)
  3.33334422142703E-01  6.66665584326361E-01 -1.68447192347563E-08
  6.66666127069401E-01  3.33333880205232E-01 -7.91152246028599E-02
  6.66666117454562E-01  3.33333868801740E-01  7.91152414475791E-02
 Cartesian forces (fcart) [Ha/bohr]; max,rms= 3.92661E-03 1.85095E-03 (free atoms)
 -5.22198392629129E-09 -7.89464475839077E-06  3.24931680893717E-07
  7.33814638688993E-10  3.94689921312176E-06  3.92628790630546E-03
  4.48816928760229E-09  3.94774554526902E-06 -3.92661283798635E-03
 Gradient of E wrt nuclear positions in reduced coordinates (gred)
 -4.08141518479559E-05  4.08453370791714E-05 -1.22806377757463E-05
  2.04104925512363E-05 -2.04148748280682E-05 -1.48392177235566E-01
  2.04036592967196E-05 -2.04304622511032E-05  1.48404457873341E-01
 Total energy (etotal) [Ha]= -9.23834711296444E+01
 
 Difference of energy with previous step (new-old):
           Absolute (Ha)=-4.54553E-05
           Relative     =-4.92029E-07
 
--- Iteration: (   3/1000) Internal Cycle: (1/1)
--------------------------------------------------------------------------------
 
---SELF-CONSISTENT-FIELD CONVERGENCE--------------------------------------------

--- !BeginCycle
iteration_state: {dtset: 2, itime: 3, icycle: 1, }
solver: {iscf: 7, nstep: 150, nline: 4, wfoptalg: 0, }
tolerances: {toldfe: 1.00E-10, }
...
 
     iter   Etot(hartree)      deltaE(h)  residm     vres2
 ETOT  1  -92.382778729284    -9.238E+01 1.295E-05 4.609E+02
 ETOT  2  -92.382682260200     9.647E-05 2.447E-06 3.984E+01
 ETOT  3  -92.380370007547     2.312E-03 3.684E-05 2.440E+02
 ETOT  4  -92.383540878512    -3.171E-03 2.173E-05 5.091E+00
 ETOT  5  -92.383546108027    -5.230E-06 7.411E-07 3.875E+00
 ETOT  6  -92.383547305048    -1.197E-06 2.926E-07 3.318E+00
 ETOT  7  -92.383547377408    -7.236E-08 1.446E-07 3.206E+00
 ETOT  8  -92.383547555289    -1.779E-07 1.411E-07 3.079E+00
 ETOT  9  -92.383547634041    -7.875E-08 7.127E-08 3.012E+00
 ETOT 10  -92.383547696606    -6.257E-08 8.542E-08 3.001E+00
 ETOT 11  -92.383548387174    -6.906E-07 3.479E-08 2.754E+00
 ETOT 12  -92.383549157699    -7.705E-07 3.186E-08 2.227E+00
 ETOT 13  -92.383549140995     1.670E-08 2.007E-08 2.109E+00
 ETOT 14  -92.383549185802    -4.481E-08 2.094E-08 2.043E+00
 ETOT 15  -92.383549110590     7.521E-08 1.061E-08 2.108E+00
 ETOT 16  -92.383549195629    -8.504E-08 1.359E-08 2.192E+00
 ETOT 17  -92.383549478025    -2.824E-07 7.301E-09 1.695E+00
 ETOT 18  -92.383548850623     6.274E-07 2.187E-08 1.914E+00
 ETOT 19  -92.383549189365    -3.387E-07 1.450E-08 1.095E+00
 ETOT 20  -92.383549738651    -5.493E-07 6.025E-09 1.232E+00
 ETOT 21  -92.383549816553    -7.790E-08 4.436E-09 1.170E+00
 ETOT 22  -92.383549776350     4.020E-08 1.734E-09 1.095E+00
 ETOT 23  -92.383549630447     1.459E-07 2.944E-09 1.218E+00
 ETOT 24  -92.383549809677    -1.792E-07 1.079E-09 1.056E+00
 ETOT 25  -92.383549714759     9.492E-08 8.479E-10 1.062E+00
 ETOT 26  -92.383549893852    -1.791E-07 4.844E-10 9.619E-01
 ETOT 27  -92.383549874068     1.978E-08 7.659E-10 9.778E-01
 ETOT 28  -92.383549807447     6.662E-08 4.357E-10 1.004E+00
 ETOT 29  -92.383549980610    -1.732E-07 3.840E-10 8.614E-01
 ETOT 30  -92.383550030323    -4.971E-08 2.671E-10 7.862E-01
 ETOT 31  -92.383549968715     6.161E-08 9.543E-10 6.745E-01
 ETOT 32  -92.383550042516    -7.380E-08 6.966E-10 7.376E-01
 ETOT 33  -92.383549972457     7.006E-08 6.271E-10 7.228E-01
 ETOT 34  -92.383550006554    -3.410E-08 2.312E-10 6.737E-01
 ETOT 35  -92.383549968219     3.833E-08 6.958E-11 7.558E-01
 ETOT 36  -92.383550110433    -1.422E-07 3.443E-10 5.113E-01
 ETOT 37  -92.383550093295     1.714E-08 9.718E-11 5.930E-01
 ETOT 38  -92.383550098290    -4.994E-09 9.299E-11 5.634E-01
 ETOT 39  -92.383550104334    -6.044E-09 3.496E-10 5.694E-01
 ETOT 40  -92.383550117747    -1.341E-08 7.857E-11 5.531E-01
 ETOT 41  -92.383550119844    -2.097E-09 2.830E-10 5.453E-01
 ETOT 42  -92.383550136554    -1.671E-08 1.046E-10 5.181E-01
 ETOT 43  -92.383550131143     5.411E-09 1.289E-10 5.317E-01
 ETOT 44  -92.383550113633     1.751E-08 1.273E-10 5.257E-01
 ETOT 45  -92.383550131525    -1.789E-08 1.377E-10 5.197E-01
 ETOT 46  -92.383550040394     9.113E-08 3.325E-10 5.766E-01
 ETOT 47  -92.383550117643    -7.725E-08 7.734E-10 5.130E-01
 ETOT 48  -92.383550089683     2.796E-08 4.321E-10 5.671E-01
 ETOT 49  -92.383550091809    -2.127E-09 3.239E-10 5.631E-01
 ETOT 50  -92.383550102199    -1.039E-08 1.086E-10 5.546E-01
 ETOT 51  -92.383550105202    -3.002E-09 1.159E-10 5.401E-01
 ETOT 52  -92.383550101565     3.636E-09 6.125E-11 5.271E-01
 ETOT 53  -92.383550108804    -7.239E-09 7.022E-11 5.325E-01
 ETOT 54  -92.383550075548     3.326E-08 8.689E-11 5.232E-01
 ETOT 55  -92.383550127428    -5.188E-08 1.614E-10 4.694E-01
 ETOT 56  -92.383550145231    -1.780E-08 7.303E-11 4.040E-01
 ETOT 57  -92.383550146698    -1.468E-09 3.578E-10 3.997E-01
 ETOT 58  -92.383550137695     9.003E-09 5.212E-11 4.346E-01
 ETOT 59  -92.383550159355    -2.166E-08 1.008E-10 3.825E-01
 ETOT 60  -92.383550163809    -4.453E-09 7.493E-11 3.574E-01
 ETOT 61  -92.383550163799     1.012E-11 8.835E-11 3.660E-01
 ETOT 62  -92.383550149548     1.425E-08 6.402E-11 3.813E-01
 ETOT 63  -92.383550170287    -2.074E-08 1.279E-10 3.025E-01
 ETOT 64  -92.383550151824     1.846E-08 3.800E-10 4.032E-01
 ETOT 65  -92.383550150382     1.442E-09 1.335E-10 3.622E-01
 ETOT 66  -92.383549942769     2.076E-07 1.579E-09 4.564E-01
 ETOT 67  -92.383550147039    -2.043E-07 6.413E-10 3.524E-01
 ETOT 68  -92.383550151967    -4.929E-09 1.430E-10 3.452E-01
 ETOT 69  -92.383550170492    -1.853E-08 5.794E-11 3.102E-01
 ETOT 70  -92.383550167230     3.263E-09 6.355E-11 3.353E-01
 ETOT 71  -92.383550161252     5.977E-09 9.990E-11 3.418E-01
 ETOT 72  -92.383550155488     5.765E-09 9.666E-11 3.385E-01
 ETOT 73  -92.383550134897     2.059E-08 7.012E-11 3.463E-01
 ETOT 74  -92.383550171504    -3.661E-08 9.717E-11 3.321E-01
 ETOT 75  -92.383550165969     5.536E-09 8.012E-11 3.396E-01
 ETOT 76  -92.383550166098    -1.299E-10 8.824E-11 3.453E-01
 ETOT 77  -92.383550165787     3.111E-10 7.401E-11 3.419E-01
 ETOT 78  -92.383550160870     4.918E-09 1.067E-10 3.480E-01
 ETOT 79  -92.383550174555    -1.369E-08 1.212E-10 3.558E-01
 ETOT 80  -92.383550175476    -9.210E-10 1.327E-10 3.814E-01
 ETOT 81  -92.383550174701     7.747E-10 8.565E-11 3.714E-01
 ETOT 82  -92.383550173389     1.312E-09 1.005E-10 3.814E-01
 ETOT 83  -92.383550173473    -8.370E-11 8.302E-11 3.845E-01
 ETOT 84  -92.383550171640     1.833E-09 9.377E-11 3.797E-01
 ETOT 85  -92.383550169432     2.207E-09 8.052E-11 3.819E-01
 ETOT 86  -92.383550152406     1.703E-08 1.005E-10 4.404E-01
 ETOT 87  -92.383550163420    -1.101E-08 7.678E-11 4.534E-01
 ETOT 88  -92.383550170430    -7.010E-09 3.181E-10 4.106E-01
 ETOT 89  -92.383550178368    -7.938E-09 1.812E-10 2.816E-01
 ETOT 90  -92.383550181739    -3.371E-09 8.423E-11 2.884E-01
 ETOT 91  -92.383550183245    -1.506E-09 4.976E-11 3.365E-01
 ETOT 92  -92.383550184080    -8.350E-10 8.037E-11 3.345E-01
 ETOT 93  -92.383550180283     3.796E-09 5.226E-11 3.473E-01
 ETOT 94  -92.383550184249    -3.965E-09 7.715E-11 3.459E-01
 ETOT 95  -92.383550183399     8.495E-10 1.074E-10 2.847E-01
 ETOT 96  -92.383550184099    -6.998E-10 6.749E-11 3.182E-01
 ETOT 97  -92.383550184388    -2.888E-10 9.611E-11 3.264E-01
 ETOT 98  -92.383550179765     4.623E-09 4.924E-11 2.803E-01
 ETOT 99  -92.383550179090     6.746E-10 6.232E-11 2.472E-01
 ETOT  100  -92.383550173661     5.429E-09 5.955E-11 2.594E-01
 ETOT  101  -92.383550176440    -2.779E-09 7.343E-11 2.592E-01
 ETOT  102  -92.383550155202     2.124E-08 8.601E-11 2.797E-01
 ETOT  103  -92.383550183148    -2.795E-08 1.291E-10 2.623E-01
 ETOT  104  -92.383550167418     1.573E-08 9.159E-11 2.639E-01
 ETOT  105  -92.383550159540     7.879E-09 3.410E-10 2.572E-01
 ETOT  106  -92.383550158898     6.417E-10 6.868E-11 2.512E-01
 ETOT  107  -92.383550174524    -1.563E-08 5.540E-11 2.621E-01
 ETOT  108  -92.383550176730    -2.206E-09 6.689E-11 2.694E-01
 ETOT  109  -92.383550177193    -4.634E-10 5.082E-11 2.479E-01
 ETOT  110  -92.383550180396    -3.203E-09 7.189E-11 2.456E-01
 ETOT  111  -92.383550181744    -1.348E-09 3.545E-11 2.636E-01
 ETOT  112  -92.383550179788     1.955E-09 7.595E-11 2.420E-01
 ETOT  113  -92.383550182557    -2.769E-09 3.272E-11 2.547E-01
 ETOT  114  -92.383550183710    -1.153E-09 1.580E-10 2.537E-01
 ETOT  115  -92.383550184770    -1.060E-09 3.470E-11 2.181E-01
 ETOT  116  -92.383550171086     1.368E-08 6.025E-11 2.050E-01
 ETOT  117  -92.383550167071     4.014E-09 6.213E-11 2.373E-01
[...]
etotal    :  -9.23835527E+01
entropy   :   0.00000000E+00
fermie    :  -6.33671458E-02
cartesian_stress_tensor: # hartree/bohr^3
- [ -2.25191447E-05,  -3.93339770E-13,  -1.38957483E-11, ]
- [ -3.93339770E-13,  -2.26070374E-05,  -1.49992721E-12, ]
- [ -1.38957483E-11,  -1.49992721E-12,   1.48466714E-08, ]
pressure_GPa:   4.4241E-01
xred      :
- [  3.3334E-01,   6.6666E-01,   9.0027E-09, Mo]
- [  6.6666E-01,   3.3334E-01,  -7.8567E-02,  S]
- [  6.6666E-01,   3.3334E-01,   7.8567E-02,  S]
cartesian_forces: # hartree/bohr
- [  3.75308579E-10,   2.01068485E-06,  -1.70915665E-07, ]
- [ -1.05168808E-09,  -1.00529675E-06,  -5.98916466E-06, ]
- [  6.76379504E-10,  -1.00538810E-06,   6.16008033E-06, ]
force_length_stats: {min:   2.01793604E-06, max:   6.24158596E-06, mean:   4.77749051E-06, }
...

 Integrated electronic density in atomic spheres:
 ------------------------------------------------
 Atom  Sphere_radius  Integrated_density
    1        2.00000         10.49892118
    2        2.00000          3.92926134
    3        2.00000          3.92926155
 
---OUTPUT-----------------------------------------------------------------------
 
 Cartesian coordinates (xcart) [bohr]
  2.98595626225116E+00  1.72389648396257E+00  3.40252458629467E-07
  2.98595628673461E+00 -1.72391956557047E+00 -2.96939930113724E+00
  2.98595623873205E+00 -1.72391957036801E+00  2.96939896088479E+00
 Reduced coordinates (xred)
  3.33337796692998E-01  6.66662203199350E-01  9.00269231367129E-09
  6.66664438773954E-01  3.33335569317926E-01 -7.85669216682452E-02
  6.66664431199715E-01  3.33335560816057E-01  7.85669126655529E-02
 Cartesian forces (fcart) [Ha/bohr]; max,rms= 6.16008E-06 2.97975E-06 (free atoms)
  3.75308579325571E-10  2.01068484819890E-06 -1.70915665032770E-07
 -1.05168808355361E-09 -1.00529675196264E-06 -5.98916466213316E-06
  6.76379504228043E-10 -1.00538809623625E-06  6.16008032716593E-06
 Gradient of E wrt nuclear positions in reduced coordinates (gred)
  1.03977954534725E-05 -1.04000367634782E-05  6.45967597463907E-06
 -5.19608155118438E-06  5.20236214042310E-06  2.26357619523765E-04
 -5.20171390228813E-06  5.19767462305508E-06 -2.32817295498404E-04
 Total energy (etotal) [Ha]= -9.23835526567406E+01
 
 Difference of energy with previous step (new-old):
           Absolute (Ha)=-2.05766E-08
           Relative     =-2.22730E-10
 
 At Broyd/MD step   5, gradients are converged : 
  max grad (force/stress) = 6.1601E-06 < tolmxf= 5.0000E-05 ha/bohr (free atoms)
 
================================================================================
 
 ----iterations are completed or convergence reached----
 
 Mean square residual over all n,k,spin=   70.906E-14; max=  54.982E-12
 reduced coordinates (array xred) for    3 atoms
       0.333337796693      0.666662203199      0.000000009003
       0.666664438774      0.333335569318     -0.078566921668
       0.666664431200      0.333335560816      0.078566912666
 rms dE/dt=  1.0843E-04; max dE/dt=  2.2632E-04; dE/dt below (all hartree)
    1       0.000010415117     -0.000010415314      0.000006421963
    2      -0.000005178760      0.000005187085      0.000226319907
    3      -0.000005184393      0.000005182397     -0.000232855008
 
 cartesian coordinates (angstrom) at end:
    1      1.58009999982990     0.91224672928143     0.00000018005385
    2      1.58010001278598    -0.91225894354227    -1.57133843336490
    3      1.58009998738412    -0.91225894608102     1.57133825331106
 
 cartesian forces (hartree/bohr) at end:
    1      0.00000000037531     0.00000201068485    -0.00000017091567
    2     -0.00000000105169    -0.00000100529675    -0.00000598916466
    3      0.00000000067638    -0.00000100538810     0.00000616008033
 frms,max,avg= 2.9797498E-06 6.1600803E-06  -3.423E-10  3.152E-09  9.978E-10 h/b
 
 cartesian forces (eV/Angstrom) at end:
    1      0.00000001929914     0.00010339356332    -0.00000878883613
    2     -0.00000005407997    -0.00005169443311    -0.00030797520372
    3      0.00000003478083    -0.00005169913022     0.00031676403985
 frms,max,avg= 1.5322488E-04 3.1676404E-04  -1.760E-08  1.621E-07  5.131E-08 e/A
 length scales=  5.971912525145  5.971912525145 37.794522657713 bohr
              =  3.160200000000  3.160200000000 20.000000000000 angstroms
 prteigrs : about to open file mos2_exp_relx_struco_DS2_EIG
 Fermi (or HOMO) energy (hartree) =  -0.06337   Average Vxc (hartree)=  -0.14313
 Eigenvalues (hartree) for nkpt=  32  k points:
 kpt#   1, nband= 14, wtk=  0.03125, kpt=  0.0625  0.0625  0.5000 (reduced coord)
  -2.29814   -1.34812   -1.34143   -1.34016   -0.57475   -0.53112   -0.26214   -0.16944
  -0.15235   -0.14893   -0.12617   -0.10080   -0.06777    0.03401
 prteigrs : prtvol=0 or 1, do not print more k-points.
 

--- !EnergyTerms
iteration_state     : {dtset: 2, itime: 5, icycle: 1, }
comment             : Components of total free energy in Hartree
kinetic             :  2.99928678146799E+01
hartree             :  2.82526862938749E+02
xc                  : -1.66133455787079E+01
Ewald energy        :  2.06307575976458E+02
psp_core            :  7.58198985105847E-01
local_psp           : -6.06967438139721E+02
non_local_psp       :  1.16117253466958E+01
total_energy        : -9.23835526567406E+01
total_energy_eV     : -2.51388431369309E+03
band_energy         : -1.71075828620648E+01
...

 rms coord change=  3.2202E-04   atom, delta coord (reduced):
     1        0.000004463360     -0.000004463467      0.000000009003
     2       -0.000002227893      0.000002235985      0.000683078332
     3       -0.000002235467      0.000002227483     -0.000683087334
 
 Cartesian components of stress tensor (hartree/bohr^3)
  sigma(1 1)= -2.25191447E-05  sigma(3 2)= -1.49992721E-12
  sigma(2 2)= -2.26070374E-05  sigma(3 1)= -1.38957483E-11
  sigma(3 3)=  1.48466714E-08  sigma(2 1)= -3.93339770E-13
 
-Cartesian components of stress tensor (GPa)         [Pressure=  4.4241E-01 GPa]
- sigma(1 1)= -6.62535998E-01  sigma(3 2)= -4.41293747E-08
- sigma(2 2)= -6.65121892E-01  sigma(3 1)= -4.08826961E-07
- sigma(3 3)=  4.36804079E-04  sigma(2 1)= -1.15724536E-08
 
== END DATASET(S) ==============================================================
================================================================================
  
 -outvars: echo values of variables after computation  --------
            acell      5.9719125251E+00  5.9719125251E+00  3.7794522658E+01 Bohr
              amu      9.59400000E+01  3.20660000E+01
      chksymbreak           0
          dilatmx      1.05000000E+00
             ecut      8.00000000E+01 Hartree
           ecutsm      5.00000000E-01 Hartree
           etotal1    -9.2385641522E+01
           etotal2    -9.2383552657E+01
            fcart1    -6.0021547005E-10  1.8828509966E-09 -1.9629754653E-07
                       7.7248823941E-09  2.8416547385E-09  4.9197021742E-05
                      -7.1246669241E-09 -4.7245057351E-09 -4.9000724196E-05
            fcart2     3.7530857933E-10  2.0106848482E-06 -1.7091566503E-07
                      -1.0516880836E-09 -1.0052967520E-06 -5.9891646621E-06
                       6.7637950423E-10 -1.0053880962E-06  6.1600803272E-06
-          fftalg         512
           ionmov           2
           istwfk1       4    0    5    0    0    0    0    8    0    9
              ixc          11
           jdtset        1    2
              kpt1     0.00000000E+00  0.00000000E+00  5.00000000E-01
                       2.50000000E-01  0.00000000E+00  5.00000000E-01
                       5.00000000E-01  0.00000000E+00  5.00000000E-01
                       0.00000000E+00  2.50000000E-01  5.00000000E-01
                       2.50000000E-01  2.50000000E-01  5.00000000E-01
                       5.00000000E-01  2.50000000E-01  5.00000000E-01
                      -2.50000000E-01  2.50000000E-01  5.00000000E-01
                       0.00000000E+00  5.00000000E-01  5.00000000E-01
                       2.50000000E-01  5.00000000E-01  5.00000000E-01
                       5.00000000E-01  5.00000000E-01  5.00000000E-01
              kpt2     6.25000000E-02  6.25000000E-02  5.00000000E-01
                       1.87500000E-01  6.25000000E-02  5.00000000E-01
                       3.12500000E-01  6.25000000E-02  5.00000000E-01
                       4.37500000E-01  6.25000000E-02  5.00000000E-01
                      -4.37500000E-01  6.25000000E-02  5.00000000E-01
                      -3.12500000E-01  6.25000000E-02  5.00000000E-01
                      -1.87500000E-01  6.25000000E-02  5.00000000E-01
                      -6.25000000E-02  6.25000000E-02  5.00000000E-01
                       6.25000000E-02  1.87500000E-01  5.00000000E-01
                       1.87500000E-01  1.87500000E-01  5.00000000E-01
                       3.12500000E-01  1.87500000E-01  5.00000000E-01
                       4.37500000E-01  1.87500000E-01  5.00000000E-01
                      -4.37500000E-01  1.87500000E-01  5.00000000E-01
                      -3.12500000E-01  1.87500000E-01  5.00000000E-01
                      -1.87500000E-01  1.87500000E-01  5.00000000E-01
                      -6.25000000E-02  1.87500000E-01  5.00000000E-01
                       6.25000000E-02  3.12500000E-01  5.00000000E-01
                       1.87500000E-01  3.12500000E-01  5.00000000E-01
                       3.12500000E-01  3.12500000E-01  5.00000000E-01
                       4.37500000E-01  3.12500000E-01  5.00000000E-01
                      -4.37500000E-01  3.12500000E-01  5.00000000E-01
                      -3.12500000E-01  3.12500000E-01  5.00000000E-01
                      -1.87500000E-01  3.12500000E-01  5.00000000E-01
                      -6.25000000E-02  3.12500000E-01  5.00000000E-01
                       6.25000000E-02  4.37500000E-01  5.00000000E-01
                       1.87500000E-01  4.37500000E-01  5.00000000E-01
                       3.12500000E-01  4.37500000E-01  5.00000000E-01
                       4.37500000E-01  4.37500000E-01  5.00000000E-01
                      -4.37500000E-01  4.37500000E-01  5.00000000E-01
                      -3.12500000E-01  4.37500000E-01  5.00000000E-01
                      -1.87500000E-01  4.37500000E-01  5.00000000E-01
                      -6.25000000E-02  4.37500000E-01  5.00000000E-01
         kptrlatt1       4    0    0      0    4    0      0    0    1
         kptrlatt2       8    0    0      0    8    0      0    0    1
          kptrlen1     2.38876501E+01
          kptrlen2     4.77753002E+01
P           mkmem           1
            natom           3
            nband1         14
            nband2         14
           ndtset           2
            ngfft          54      54     320
             nkpt1         10
             nkpt2         32
            nstep         150
             nsym           1
            ntime        1000
           ntypat           2
              occ1     2.000000  2.000000  2.000000  2.000000  2.000000  2.000000
                       2.000000  2.000000  2.000000  2.000000  2.000000  2.000000
                       2.000000  0.000000
              occ2     2.000000  2.000000  2.000000  2.000000  2.000000  2.000000
                       2.000000  2.000000  2.000000  2.000000  2.000000  2.000000
                       2.000000  0.000000
            rprim      5.0000000000E-01 -8.6602540378E-01  0.0000000000E+00
                       5.0000000000E-01  8.6602540378E-01  0.0000000000E+00
                       0.0000000000E+00  0.0000000000E+00  1.0000000000E+00
           shiftk1     0.00000000E+00  0.00000000E+00  5.00000000E-01
           shiftk2     5.00000000E-01  5.00000000E-01  5.00000000E-01
          spgroup           1
           strten1    -2.0086388467E-05 -2.0086389081E-05  1.9987046557E-07
                       2.5077892748E-11  5.2899259767E-11 -1.0344954848E-11
           strten2    -2.2519144652E-05 -2.2607037403E-05  1.4846671393E-08
                      -1.4999272113E-12 -1.3895748316E-11 -3.9333976983E-13
           toldfe      1.00000000E-10 Hartree
            typat      1  2  2
              wtk1       0.06250    0.12500    0.06250    0.12500    0.12500    0.12500
                         0.12500    0.06250    0.12500    0.06250
              wtk2       0.03125    0.03125    0.03125    0.03125    0.03125    0.03125
                         0.03125    0.03125    0.03125    0.03125    0.03125    0.03125
                         0.03125    0.03125    0.03125    0.03125    0.03125    0.03125
                         0.03125    0.03125    0.03125    0.03125    0.03125    0.03125
                         0.03125    0.03125    0.03125    0.03125    0.03125    0.03125
                         0.03125    0.03125
           xangst1     1.5801000037E+00  9.1227115391E-01  2.2531300958E-07
                       1.5800999398E+00 -9.1227118475E-01 -1.5694744234E+00
                       1.5801000565E+00 -9.1227112950E-01  1.5694741981E+00
           xangst2     1.5800999998E+00  9.1224672928E-01  1.8005384627E-07
                       1.5801000128E+00 -9.1225894354E-01 -1.5713384334E+00
                       1.5800999874E+00 -9.1225894608E-01  1.5713382533E+00
            xcart1     2.9859562696E+00  1.7239426398E+00  4.2577988228E-07
                       2.9859561487E+00 -1.7239426981E+00 -2.9658768328E+00
                       2.9859563694E+00 -1.7239425937E+00  2.9658764071E+00
            xcart2     2.9859562623E+00  1.7238964840E+00  3.4025245863E-07
                       2.9859562867E+00 -1.7239195656E+00 -2.9693993011E+00
                       2.9859562387E+00 -1.7239195704E+00  2.9693989609E+00
             xred1     3.3333333568E-01  6.6666666666E-01  1.1265650479E-08
                       6.6666665206E-01  3.3333330981E-01 -7.8473721171E-02
                       6.6666667892E-01  3.3333335686E-01  7.8473709906E-02
             xred2     3.3333779669E-01  6.6666220320E-01  9.0026923137E-09
                       6.6666443877E-01  3.3333556932E-01 -7.8566921668E-02
                       6.6666443120E-01  3.3333556082E-01  7.8566912666E-02
            znucl       42.00000   16.00000
 
================================================================================


- Timing analysis has been suppressed with timopt=0



================================================================================

 Suggested references for the acknowledgment of ABINIT usage.

 The users of ABINIT have little formal obligations with respect to the ABINIT group
 (those specified in the GNU General Public License, http://www.gnu.org/copyleft/gpl.txt).
 However, it is common practice in the scientific literature,
 to acknowledge the efforts of people that have made the research possible.
 In this spirit, please find below suggested citations of work written by ABINIT developers,
 corresponding to implementations inside of ABINIT that you have used in the present run.
 Note also that it will be of great value to readers of publications presenting these results,
 to read papers enabling them to understand the theoretical formalism and details
 of the ABINIT implementation.
 For information on why they are suggested, see also https://docs.abinit.org/theory/acknowledgments.
-
- [1] The Abinit project: Impact, environment and recent developments.
- Computer Phys. Comm. 248, 107042 (2020).
- X.Gonze, B. Amadon, G. Antonius, F.Arnardi, L.Baguet, J.-M.Beuken,
- J.Bieder, F.Bottin, J.Bouchet, E.Bousquet, N.Brouwer, F.Bruneval,
- G.Brunin, T.Cavignac, J.-B. Charraud, Wei Chen, M.Cote, S.Cottenier,
- J.Denier, G.Geneste, Ph.Ghosez, M.Giantomassi, Y.Gillet, O.Gingras,
- D.R.Hamann, G.Hautier, Xu He, N.Helbig, N.Holzwarth, Y.Jia, F.Jollet,
- W.Lafargue-Dit-Hauret, K.Lejaeghere, M.A.L.Marques, A.Martin, C.Martins,
- H.P.C. Miranda, F.Naccarato, K. Persson, G.Petretto, V.Planes, Y.Pouillon,
- S.Prokhorenko, F.Ricci, G.-M.Rignanese, A.H.Romero, M.M.Schmitt, M.Torrent,
- M.J.van Setten, B.Van Troeye, M.J.Verstraete, G.Zerah and J.W.Zwanzig
- Comment: the fifth generic paper describing the ABINIT project.
- Note that a version of this paper, that is not formatted for Computer Phys. Comm. 
- is available at https://www.abinit.org/sites/default/files/ABINIT20.pdf .
- The licence allows the authors to put it on the Web.
- DOI and bibtex: see https://docs.abinit.org/theory/bibliography/#gonze2020
-
- [2] Optimized norm-conserving Vanderbilt pseudopotentials.
- D.R. Hamann, Phys. Rev. B 88, 085117 (2013).
- Comment: Some pseudopotential generated using the ONCVPSP code were used.
- DOI and bibtex: see https://docs.abinit.org/theory/bibliography/#hamann2013
-
- [3] ABINIT: Overview, and focus on selected capabilities
- J. Chem. Phys. 152, 124102 (2020).
- A. Romero, D.C. Allan, B. Amadon, G. Antonius, T. Applencourt, L.Baguet,
- J.Bieder, F.Bottin, J.Bouchet, E.Bousquet, F.Bruneval,
- G.Brunin, D.Caliste, M.Cote,
- J.Denier, C. Dreyer, Ph.Ghosez, M.Giantomassi, Y.Gillet, O.Gingras,
- D.R.Hamann, G.Hautier, F.Jollet, G. Jomard,
- A.Martin, 
- H.P.C. Miranda, F.Naccarato, G.Petretto, N.A. Pike, V.Planes,
- S.Prokhorenko, T. Rangel, F.Ricci, G.-M.Rignanese, M.Royo, M.Stengel, M.Torrent,
- M.J.van Setten, B.Van Troeye, M.J.Verstraete, J.Wiktor, J.W.Zwanziger, and X.Gonze.
- Comment: a global overview of ABINIT, with focus on selected capabilities .
- Note that a version of this paper, that is not formatted for J. Chem. Phys 
- is available at https://www.abinit.org/sites/default/files/ABINIT20_JPC.pdf .
- The licence allows the authors to put it on the Web.
- DOI and bibtex: see https://docs.abinit.org/theory/bibliography/#romero2020
-
- [4] Recent developments in the ABINIT software package.
- Computer Phys. Comm. 205, 106 (2016).
- X.Gonze, F.Jollet, F.Abreu Araujo, D.Adams, B.Amadon, T.Applencourt,
- C.Audouze, J.-M.Beuken, J.Bieder, A.Bokhanchuk, E.Bousquet, F.Bruneval
- D.Caliste, M.Cote, F.Dahm, F.Da Pieve, M.Delaveau, M.Di Gennaro,
- B.Dorado, C.Espejo, G.Geneste, L.Genovese, A.Gerossier, M.Giantomassi,
- Y.Gillet, D.R.Hamann, L.He, G.Jomard, J.Laflamme Janssen, S.Le Roux,
- A.Levitt, A.Lherbier, F.Liu, I.Lukacevic, A.Martin, C.Martins,
- M.J.T.Oliveira, S.Ponce, Y.Pouillon, T.Rangel, G.-M.Rignanese,
- A.H.Romero, B.Rousseau, O.Rubel, A.A.Shukri, M.Stankovski, M.Torrent,
- M.J.Van Setten, B.Van Troeye, M.J.Verstraete, D.Waroquier, J.Wiktor,
- B.Xu, A.Zhou, J.W.Zwanziger.
- Comment: the fourth generic paper describing the ABINIT project.
- Note that a version of this paper, that is not formatted for Computer Phys. Comm. 
- is available at https://www.abinit.org/sites/default/files/ABINIT16.pdf .
- The licence allows the authors to put it on the Web.
- DOI and bibtex: see https://docs.abinit.org/theory/bibliography/#gonze2016
-
- And optionally:
-
- [5] ABINIT: First-principles approach of materials and nanosystem properties.
- Computer Phys. Comm. 180, 2582-2615 (2009).
- X. Gonze, B. Amadon, P.-M. Anglade, J.-M. Beuken, F. Bottin, P. Boulanger, F. Bruneval,
- D. Caliste, R. Caracas, M. Cote, T. Deutsch, L. Genovese, Ph. Ghosez, M. Giantomassi
- S. Goedecker, D.R. Hamann, P. Hermet, F. Jollet, G. Jomard, S. Leroux, M. Mancini, S. Mazevet,
- M.J.T. Oliveira, G. Onida, Y. Pouillon, T. Rangel, G.-M. Rignanese, D. Sangalli, R. Shaltaf,
- M. Torrent, M.J. Verstraete, G. Zerah, J.W. Zwanziger
- Comment: the third generic paper describing the ABINIT project.
- Note that a version of this paper, that is not formatted for Computer Phys. Comm. 
- is available at https://www.abinit.org/sites/default/files/ABINIT_CPC_v10.pdf .
- The licence allows the authors to put it on the Web.
- DOI and bibtex: see https://docs.abinit.org/theory/bibliography/#gonze2009
-
- Proc.   0 individual time (sec): cpu=       2364.7  wall=       2373.3
 
================================================================================
 
 Calculation completed.
.Delivered   3 WARNINGs and   0 COMMENTs to log file.
+Overall time at end (sec) : cpu=     189782.7  wall=     189862.8
