
.Version 9.10.3 of ABINIT 
.(MPI version, prepared for a x86_64_linux_intel2021.6 computer) 

.Copyright (C) 1998-2022 ABINIT group . 
 ABINIT comes with ABSOLUTELY NO WARRANTY.
 It is free software, and you are welcome to redistribute it
 under certain conditions (GNU General Public License,
 see ~abinit/COPYING or http://www.gnu.org/copyleft/gpl.txt).

 ABINIT is a project of the Universite Catholique de Louvain,
 Corning Inc. and other collaborators, see ~abinit/doc/developers/contributors.txt .
 Please read https://docs.abinit.org/theory/acknowledgments for suggested
 acknowledgments of the ABINIT effort.
 For more information, see https://www.abinit.org .

.Starting date : Thu  8 May 2025.
- ( at 18h14 )
  
- input  file    -> mos2_exp_relx_high.abi
- output file    -> mos2_exp_relx_high.abo
- root for input  files -> mos2_exp_relx_highi
- root for output files -> mos2_exp_relx_higho
 
 
 DATASET   11 : space group P1 (#  1); Bravais aP (primitive triclinic)
================================================================================
 Values of the parameters that define the memory need for DATASET 11.
     intxc =       0    ionmov =       0      iscf =       7    lmnmax =       6
     lnmax =       6     mgfft =     243  mpssoang =       3    mqgrid =   12031
     natom =       3  nloc_mem =       1    nspden =       1   nspinor =       1
    nsppol =       1      nsym =       1    n1xccc =    2501    ntypat =       2
    occopt =       1   xclevel =       2
-    mband =          14        mffmem =           1         mkmem =           1
       mpw =       19796          nfft =      388800          nkpt =           8
================================================================================
P This job should need less than                     123.944 Mbytes of memory.
  Rough estimation (10% accuracy) of disk space for files :
_ WF disk file :     33.833 Mbytes ; DEN or POT disk file :      2.968 Mbytes.
================================================================================
 
 
 DATASET   12 : space group P1 (#  1); Bravais aP (primitive triclinic)
================================================================================
 Values of the parameters that define the memory need for DATASET 12.
     intxc =       0    ionmov =       0      iscf =       7    lmnmax =       6
     lnmax =       6     mgfft =     243  mpssoang =       3    mqgrid =   12031
     natom =       3  nloc_mem =       1    nspden =       1   nspinor =       1
    nsppol =       1      nsym =       1    n1xccc =    2501    ntypat =       2
    occopt =       1   xclevel =       2
-    mband =          14        mffmem =           1         mkmem =           1
       mpw =       19804          nfft =      388800          nkpt =          18
================================================================================
P This job should need less than                     123.972 Mbytes of memory.
  Rough estimation (10% accuracy) of disk space for files :
_ WF disk file :     76.153 Mbytes ; DEN or POT disk file :      2.968 Mbytes.
================================================================================
 
 
 DATASET   13 : space group P1 (#  1); Bravais aP (primitive triclinic)
================================================================================
 Values of the parameters that define the memory need for DATASET 13.
     intxc =       0    ionmov =       0      iscf =       7    lmnmax =       6
     lnmax =       6     mgfft =     243  mpssoang =       3    mqgrid =   12031
     natom =       3  nloc_mem =       1    nspden =       1   nspinor =       1
    nsppol =       1      nsym =       1    n1xccc =    2501    ntypat =       2
    occopt =       1   xclevel =       2
-    mband =          14        mffmem =           1         mkmem =           1
       mpw =       19816          nfft =      388800          nkpt =          32
================================================================================
P This job should need less than                     124.013 Mbytes of memory.
  Rough estimation (10% accuracy) of disk space for files :
_ WF disk file :    135.463 Mbytes ; DEN or POT disk file :      2.968 Mbytes.
================================================================================
 
 
 DATASET   14 : space group P1 (#  1); Bravais aP (primitive triclinic)
================================================================================
 Values of the parameters that define the memory need for DATASET 14.
     intxc =       0    ionmov =       0      iscf =       7    lmnmax =       6
     lnmax =       6     mgfft =     243  mpssoang =       3    mqgrid =   12031
     natom =       3  nloc_mem =       1    nspden =       1   nspinor =       1
    nsppol =       1      nsym =       1    n1xccc =    2501    ntypat =       2
    occopt =       1   xclevel =       2
-    mband =          14        mffmem =           1         mkmem =           1
       mpw =       19808          nfft =      388800          nkpt =          50
================================================================================
P This job should need less than                     124.053 Mbytes of memory.
  Rough estimation (10% accuracy) of disk space for files :
_ WF disk file :    211.574 Mbytes ; DEN or POT disk file :      2.968 Mbytes.
================================================================================
 
 
 DATASET   15 : space group P1 (#  1); Bravais aP (primitive triclinic)
================================================================================
 Values of the parameters that define the memory need for DATASET 15.
     intxc =       0    ionmov =       0      iscf =       7    lmnmax =       6
     lnmax =       6     mgfft =     243  mpssoang =       3    mqgrid =   12031
     natom =       3  nloc_mem =       1    nspden =       1   nspinor =       1
    nsppol =       1      nsym =       1    n1xccc =    2501    ntypat =       2
    occopt =       1   xclevel =       2
-    mband =          14        mffmem =           1         mkmem =           1
       mpw =       19822          nfft =      388800          nkpt =          72
================================================================================
P This job should need less than                     124.114 Mbytes of memory.
  Rough estimation (10% accuracy) of disk space for files :
_ WF disk file :    304.881 Mbytes ; DEN or POT disk file :      2.968 Mbytes.
================================================================================
 
 
 DATASET   16 : space group P1 (#  1); Bravais aP (primitive triclinic)
================================================================================
 Values of the parameters that define the memory need for DATASET 16.
     intxc =       0    ionmov =       0      iscf =       7    lmnmax =       6
     lnmax =       6     mgfft =     243  mpssoang =       3    mqgrid =   12031
     natom =       3  nloc_mem =       1    nspden =       1   nspinor =       1
    nsppol =       1      nsym =       1    n1xccc =    2501    ntypat =       2
    occopt =       1   xclevel =       2
-    mband =          14        mffmem =           1         mkmem =           2
       mpw =       19820          nfft =      388800          nkpt =          98
================================================================================
P This job should need less than                     128.638 Mbytes of memory.
  Rough estimation (10% accuracy) of disk space for files :
_ WF disk file :    414.935 Mbytes ; DEN or POT disk file :      2.968 Mbytes.
================================================================================
 
 
 DATASET   21 : space group P1 (#  1); Bravais aP (primitive triclinic)
================================================================================
 Values of the parameters that define the memory need for DATASET 21.
     intxc =       0    ionmov =       0      iscf =       7    lmnmax =       6
     lnmax =       6     mgfft =     270  mpssoang =       3    mqgrid =   13179
     natom =       3  nloc_mem =       1    nspden =       1   nspinor =       1
    nsppol =       1      nsym =       1    n1xccc =    2501    ntypat =       2
    occopt =       1   xclevel =       2
-    mband =          14        mffmem =           1         mkmem =           1
       mpw =       25970          nfft =      546750          nkpt =           8
================================================================================
P This job should need less than                     172.094 Mbytes of memory.
  Rough estimation (10% accuracy) of disk space for files :
_ WF disk file :     44.384 Mbytes ; DEN or POT disk file :      4.173 Mbytes.
================================================================================
 
 
 DATASET   22 : space group P1 (#  1); Bravais aP (primitive triclinic)
================================================================================
 Values of the parameters that define the memory need for DATASET 22.
     intxc =       0    ionmov =       0      iscf =       7    lmnmax =       6
     lnmax =       6     mgfft =     270  mpssoang =       3    mqgrid =   13179
     natom =       3  nloc_mem =       1    nspden =       1   nspinor =       1
    nsppol =       1      nsym =       1    n1xccc =    2501    ntypat =       2
    occopt =       1   xclevel =       2
-    mband =          14        mffmem =           1         mkmem =           1
       mpw =       25982          nfft =      546750          nkpt =          18
================================================================================
P This job should need less than                     172.100 Mbytes of memory.
  Rough estimation (10% accuracy) of disk space for files :
_ WF disk file :     99.908 Mbytes ; DEN or POT disk file :      4.173 Mbytes.
================================================================================
 
 
 DATASET   23 : space group P1 (#  1); Bravais aP (primitive triclinic)
================================================================================
 Values of the parameters that define the memory need for DATASET 23.
     intxc =       0    ionmov =       0      iscf =       7    lmnmax =       6
     lnmax =       6     mgfft =     270  mpssoang =       3    mqgrid =   13179
     natom =       3  nloc_mem =       1    nspden =       1   nspinor =       1
    nsppol =       1      nsym =       1    n1xccc =    2501    ntypat =       2
    occopt =       1   xclevel =       2
-    mband =          14        mffmem =           1         mkmem =           1
       mpw =       25990          nfft =      546750          nkpt =          32
================================================================================
P This job should need less than                     172.106 Mbytes of memory.
  Rough estimation (10% accuracy) of disk space for files :
_ WF disk file :    177.668 Mbytes ; DEN or POT disk file :      4.173 Mbytes.
================================================================================
 
 
 DATASET   24 : space group P1 (#  1); Bravais aP (primitive triclinic)
================================================================================
 Values of the parameters that define the memory need for DATASET 24.
     intxc =       0    ionmov =       0      iscf =       7    lmnmax =       6
     lnmax =       6     mgfft =     270  mpssoang =       3    mqgrid =   13179
     natom =       3  nloc_mem =       1    nspden =       1   nspinor =       1
    nsppol =       1      nsym =       1    n1xccc =    2501    ntypat =       2
    occopt =       1   xclevel =       2
-    mband =          14        mffmem =           1         mkmem =           1
       mpw =       25996          nfft =      546750          nkpt =          50
================================================================================
P This job should need less than                     172.113 Mbytes of memory.
  Rough estimation (10% accuracy) of disk space for files :
_ WF disk file :    277.669 Mbytes ; DEN or POT disk file :      4.173 Mbytes.
================================================================================
 
 
 DATASET   25 : space group P1 (#  1); Bravais aP (primitive triclinic)
================================================================================
 Values of the parameters that define the memory need for DATASET 25.
     intxc =       0    ionmov =       0      iscf =       7    lmnmax =       6
     lnmax =       6     mgfft =     270  mpssoang =       3    mqgrid =   13179
     natom =       3  nloc_mem =       1    nspden =       1   nspinor =       1
    nsppol =       1      nsym =       1    n1xccc =    2501    ntypat =       2
    occopt =       1   xclevel =       2
-    mband =          14        mffmem =           1         mkmem =           1
       mpw =       25996          nfft =      546750          nkpt =          72
================================================================================
P This job should need less than                     172.120 Mbytes of memory.
  Rough estimation (10% accuracy) of disk space for files :
_ WF disk file :    399.843 Mbytes ; DEN or POT disk file :      4.173 Mbytes.
================================================================================
 
 
 DATASET   26 : space group P1 (#  1); Bravais aP (primitive triclinic)
================================================================================
 Values of the parameters that define the memory need for DATASET 26.
     intxc =       0    ionmov =       0      iscf =       7    lmnmax =       6
     lnmax =       6     mgfft =     270  mpssoang =       3    mqgrid =   13179
     natom =       3  nloc_mem =       1    nspden =       1   nspinor =       1
    nsppol =       1      nsym =       1    n1xccc =    2501    ntypat =       2
    occopt =       1   xclevel =       2
-    mband =          14        mffmem =           1         mkmem =           2
       mpw =       25996          nfft =      546750          nkpt =          98
================================================================================
P This job should need less than                     177.979 Mbytes of memory.
  Rough estimation (10% accuracy) of disk space for files :
_ WF disk file :    544.230 Mbytes ; DEN or POT disk file :      4.173 Mbytes.
================================================================================
 
 
 DATASET   31 : space group P1 (#  1); Bravais aP (primitive triclinic)
================================================================================
 Values of the parameters that define the memory need for DATASET 31.
     intxc =       0    ionmov =       0      iscf =       7    lmnmax =       6
     lnmax =       6     mgfft =     288  mpssoang =       3    mqgrid =   14235
     natom =       3  nloc_mem =       1    nspden =       1   nspinor =       1
    nsppol =       1      nsym =       1    n1xccc =    2501    ntypat =       2
    occopt =       1   xclevel =       2
-    mband =          14        mffmem =           1         mkmem =           1
       mpw =       32688          nfft =      663552          nkpt =           8
================================================================================
P This job should need less than                     209.033 Mbytes of memory.
  Rough estimation (10% accuracy) of disk space for files :
_ WF disk file :     55.865 Mbytes ; DEN or POT disk file :      5.065 Mbytes.
================================================================================
 
 
 DATASET   32 : space group P1 (#  1); Bravais aP (primitive triclinic)
================================================================================
 Values of the parameters that define the memory need for DATASET 32.
     intxc =       0    ionmov =       0      iscf =       7    lmnmax =       6
     lnmax =       6     mgfft =     288  mpssoang =       3    mqgrid =   14235
     natom =       3  nloc_mem =       1    nspden =       1   nspinor =       1
    nsppol =       1      nsym =       1    n1xccc =    2501    ntypat =       2
    occopt =       1   xclevel =       2
-    mband =          14        mffmem =           1         mkmem =           1
       mpw =       32722          nfft =      663552          nkpt =          18
================================================================================
P This job should need less than                     209.044 Mbytes of memory.
  Rough estimation (10% accuracy) of disk space for files :
_ WF disk file :    125.825 Mbytes ; DEN or POT disk file :      5.065 Mbytes.
================================================================================
 
 
 DATASET   33 : space group P1 (#  1); Bravais aP (primitive triclinic)
================================================================================
 Values of the parameters that define the memory need for DATASET 33.
     intxc =       0    ionmov =       0      iscf =       7    lmnmax =       6
     lnmax =       6     mgfft =     288  mpssoang =       3    mqgrid =   14235
     natom =       3  nloc_mem =       1    nspden =       1   nspinor =       1
    nsppol =       1      nsym =       1    n1xccc =    2501    ntypat =       2
    occopt =       1   xclevel =       2
-    mband =          14        mffmem =           1         mkmem =           1
       mpw =       32718          nfft =      663552          nkpt =          32
================================================================================
P This job should need less than                     209.047 Mbytes of memory.
  Rough estimation (10% accuracy) of disk space for files :
_ WF disk file :    223.660 Mbytes ; DEN or POT disk file :      5.065 Mbytes.
================================================================================
 
 
 DATASET   34 : space group P1 (#  1); Bravais aP (primitive triclinic)
================================================================================
 Values of the parameters that define the memory need for DATASET 34.
     intxc =       0    ionmov =       0      iscf =       7    lmnmax =       6
     lnmax =       6     mgfft =     288  mpssoang =       3    mqgrid =   14235
     natom =       3  nloc_mem =       1    nspden =       1   nspinor =       1
    nsppol =       1      nsym =       1    n1xccc =    2501    ntypat =       2
    occopt =       1   xclevel =       2
-    mband =          14        mffmem =           1         mkmem =           1
       mpw =       32734          nfft =      663552          nkpt =          50
================================================================================
P This job should need less than                     209.087 Mbytes of memory.
  Rough estimation (10% accuracy) of disk space for files :
_ WF disk file :    349.639 Mbytes ; DEN or POT disk file :      5.065 Mbytes.
================================================================================
 
 
 DATASET   35 : space group P1 (#  1); Bravais aP (primitive triclinic)
================================================================================
 Values of the parameters that define the memory need for DATASET 35.
     intxc =       0    ionmov =       0      iscf =       7    lmnmax =       6
     lnmax =       6     mgfft =     288  mpssoang =       3    mqgrid =   14235
     natom =       3  nloc_mem =       1    nspden =       1   nspinor =       1
    nsppol =       1      nsym =       1    n1xccc =    2501    ntypat =       2
    occopt =       1   xclevel =       2
-    mband =          14        mffmem =           1         mkmem =           1
       mpw =       32766          nfft =      663552          nkpt =          72
================================================================================
P This job should need less than                     209.157 Mbytes of memory.
  Rough estimation (10% accuracy) of disk space for files :
_ WF disk file :    503.971 Mbytes ; DEN or POT disk file :      5.065 Mbytes.
================================================================================
 
 
 DATASET   36 : space group P1 (#  1); Bravais aP (primitive triclinic)
================================================================================
 Values of the parameters that define the memory need for DATASET 36.
     intxc =       0    ionmov =       0      iscf =       7    lmnmax =       6
     lnmax =       6     mgfft =     288  mpssoang =       3    mqgrid =   14235
     natom =       3  nloc_mem =       1    nspden =       1   nspinor =       1
    nsppol =       1      nsym =       1    n1xccc =    2501    ntypat =       2
    occopt =       1   xclevel =       2
-    mband =          14        mffmem =           1         mkmem =           2
       mpw =       32764          nfft =      663552          nkpt =          98
================================================================================
P This job should need less than                     216.594 Mbytes of memory.
  Rough estimation (10% accuracy) of disk space for files :
_ WF disk file :    685.918 Mbytes ; DEN or POT disk file :      5.065 Mbytes.
================================================================================
 
 
 DATASET   41 : space group P1 (#  1); Bravais aP (primitive triclinic)
================================================================================
 Values of the parameters that define the memory need for DATASET 41.
     intxc =       0    ionmov =       0      iscf =       7    lmnmax =       6
     lnmax =       6     mgfft =     320  mpssoang =       3    mqgrid =   15218
     natom =       3  nloc_mem =       1    nspden =       1   nspinor =       1
    nsppol =       1      nsym =       1    n1xccc =    2501    ntypat =       2
    occopt =       1   xclevel =       2
-    mband =          14        mffmem =           1         mkmem =           1
       mpw =       39940          nfft =      800000          nkpt =           8
================================================================================
P This job should need less than                     251.607 Mbytes of memory.
  Rough estimation (10% accuracy) of disk space for files :
_ WF disk file :     68.259 Mbytes ; DEN or POT disk file :      6.106 Mbytes.
================================================================================
 
 
 DATASET   42 : space group P1 (#  1); Bravais aP (primitive triclinic)
================================================================================
 Values of the parameters that define the memory need for DATASET 42.
     intxc =       0    ionmov =       0      iscf =       7    lmnmax =       6
     lnmax =       6     mgfft =     320  mpssoang =       3    mqgrid =   15218
     natom =       3  nloc_mem =       1    nspden =       1   nspinor =       1
    nsppol =       1      nsym =       1    n1xccc =    2501    ntypat =       2
    occopt =       1   xclevel =       2
-    mband =          14        mffmem =           1         mkmem =           1
       mpw =       39980          nfft =      800000          nkpt =          18
================================================================================
P This job should need less than                     251.653 Mbytes of memory.
  Rough estimation (10% accuracy) of disk space for files :
_ WF disk file :    153.734 Mbytes ; DEN or POT disk file :      6.106 Mbytes.
================================================================================
 
 
 DATASET   43 : space group P1 (#  1); Bravais aP (primitive triclinic)
================================================================================
 Values of the parameters that define the memory need for DATASET 43.
     intxc =       0    ionmov =       0      iscf =       7    lmnmax =       6
     lnmax =       6     mgfft =     320  mpssoang =       3    mqgrid =   15218
     natom =       3  nloc_mem =       1    nspden =       1   nspinor =       1
    nsppol =       1      nsym =       1    n1xccc =    2501    ntypat =       2
    occopt =       1   xclevel =       2
-    mband =          14        mffmem =           1         mkmem =           1
       mpw =       39964          nfft =      800000          nkpt =          32
================================================================================
P This job should need less than                     251.679 Mbytes of memory.
  Rough estimation (10% accuracy) of disk space for files :
_ WF disk file :    273.193 Mbytes ; DEN or POT disk file :      6.106 Mbytes.
================================================================================
 
 
 DATASET   44 : space group P1 (#  1); Bravais aP (primitive triclinic)
================================================================================
 Values of the parameters that define the memory need for DATASET 44.
     intxc =       0    ionmov =       0      iscf =       7    lmnmax =       6
     lnmax =       6     mgfft =     320  mpssoang =       3    mqgrid =   15218
     natom =       3  nloc_mem =       1    nspden =       1   nspinor =       1
    nsppol =       1      nsym =       1    n1xccc =    2501    ntypat =       2
    occopt =       1   xclevel =       2
-    mband =          14        mffmem =           1         mkmem =           1
       mpw =       39984          nfft =      800000          nkpt =          50
================================================================================
P This job should need less than                     251.733 Mbytes of memory.
  Rough estimation (10% accuracy) of disk space for files :
_ WF disk file :    427.077 Mbytes ; DEN or POT disk file :      6.106 Mbytes.
================================================================================
 
 
 DATASET   45 : space group P1 (#  1); Bravais aP (primitive triclinic)
================================================================================
 Values of the parameters that define the memory need for DATASET 45.
     intxc =       0    ionmov =       0      iscf =       7    lmnmax =       6
     lnmax =       6     mgfft =     320  mpssoang =       3    mqgrid =   15218
     natom =       3  nloc_mem =       1    nspden =       1   nspinor =       1
    nsppol =       1      nsym =       1    n1xccc =    2501    ntypat =       2
    occopt =       1   xclevel =       2
-    mband =          14        mffmem =           1         mkmem =           1
       mpw =       39964          nfft =      800000          nkpt =          72
================================================================================
P This job should need less than                     251.777 Mbytes of memory.
  Rough estimation (10% accuracy) of disk space for files :
_ WF disk file :    614.683 Mbytes ; DEN or POT disk file :      6.106 Mbytes.
================================================================================
 
 
 DATASET   46 : space group P1 (#  1); Bravais aP (primitive triclinic)
================================================================================
 Values of the parameters that define the memory need for DATASET 46.
     intxc =       0    ionmov =       0      iscf =       7    lmnmax =       6
     lnmax =       6     mgfft =     320  mpssoang =       3    mqgrid =   15218
     natom =       3  nloc_mem =       1    nspden =       1   nspinor =       1
    nsppol =       1      nsym =       1    n1xccc =    2501    ntypat =       2
    occopt =       1   xclevel =       2
-    mband =          14        mffmem =           1         mkmem =           2
       mpw =       39976          nfft =      800000          nkpt =          98
================================================================================
P This job should need less than                     260.844 Mbytes of memory.
  Rough estimation (10% accuracy) of disk space for files :
_ WF disk file :    836.902 Mbytes ; DEN or POT disk file :      6.106 Mbytes.
================================================================================
 
 
 DATASET   51 : space group P1 (#  1); Bravais aP (primitive triclinic)
================================================================================
 Values of the parameters that define the memory need for DATASET 51.
     intxc =       0    ionmov =       0      iscf =       7    lmnmax =       6
     lnmax =       6     mgfft =     324  mpssoang =       3    mqgrid =   16141
     natom =       3  nloc_mem =       1    nspden =       1   nspinor =       1
    nsppol =       1      nsym =       1    n1xccc =    2501    ntypat =       2
    occopt =       1   xclevel =       2
-    mband =          14        mffmem =           1         mkmem =           1
       mpw =       47650          nfft =      944784          nkpt =           8
================================================================================
P This job should need less than                     296.782 Mbytes of memory.
  Rough estimation (10% accuracy) of disk space for files :
_ WF disk file :     81.435 Mbytes ; DEN or POT disk file :      7.210 Mbytes.
================================================================================
 
 
 DATASET   52 : space group P1 (#  1); Bravais aP (primitive triclinic)
================================================================================
 Values of the parameters that define the memory need for DATASET 52.
     intxc =       0    ionmov =       0      iscf =       7    lmnmax =       6
     lnmax =       6     mgfft =     324  mpssoang =       3    mqgrid =   16141
     natom =       3  nloc_mem =       1    nspden =       1   nspinor =       1
    nsppol =       1      nsym =       1    n1xccc =    2501    ntypat =       2
    occopt =       1   xclevel =       2
-    mband =          14        mffmem =           1         mkmem =           1
       mpw =       47672          nfft =      944784          nkpt =          18
================================================================================
P This job should need less than                     296.818 Mbytes of memory.
  Rough estimation (10% accuracy) of disk space for files :
_ WF disk file :    183.311 Mbytes ; DEN or POT disk file :      7.210 Mbytes.
================================================================================
 
 
 DATASET   53 : space group P1 (#  1); Bravais aP (primitive triclinic)
================================================================================
 Values of the parameters that define the memory need for DATASET 53.
     intxc =       0    ionmov =       0      iscf =       7    lmnmax =       6
     lnmax =       6     mgfft =     324  mpssoang =       3    mqgrid =   16141
     natom =       3  nloc_mem =       1    nspden =       1   nspinor =       1
    nsppol =       1      nsym =       1    n1xccc =    2501    ntypat =       2
    occopt =       1   xclevel =       2
-    mband =          14        mffmem =           1         mkmem =           1
       mpw =       47648          nfft =      944784          nkpt =          32
================================================================================
P This job should need less than                     296.840 Mbytes of memory.
  Rough estimation (10% accuracy) of disk space for files :
_ WF disk file :    325.721 Mbytes ; DEN or POT disk file :      7.210 Mbytes.
================================================================================
 
 
 DATASET   54 : space group P1 (#  1); Bravais aP (primitive triclinic)
================================================================================
 Values of the parameters that define the memory need for DATASET 54.
     intxc =       0    ionmov =       0      iscf =       7    lmnmax =       6
     lnmax =       6     mgfft =     324  mpssoang =       3    mqgrid =   16141
     natom =       3  nloc_mem =       1    nspden =       1   nspinor =       1
    nsppol =       1      nsym =       1    n1xccc =    2501    ntypat =       2
    occopt =       1   xclevel =       2
-    mband =          14        mffmem =           1         mkmem =           1
       mpw =       47646          nfft =      944784          nkpt =          50
================================================================================
P This job should need less than                     296.883 Mbytes of memory.
  Rough estimation (10% accuracy) of disk space for files :
_ WF disk file :    508.916 Mbytes ; DEN or POT disk file :      7.210 Mbytes.
================================================================================
 
 
 DATASET   55 : space group P1 (#  1); Bravais aP (primitive triclinic)
================================================================================
 Values of the parameters that define the memory need for DATASET 55.
     intxc =       0    ionmov =       0      iscf =       7    lmnmax =       6
     lnmax =       6     mgfft =     324  mpssoang =       3    mqgrid =   16141
     natom =       3  nloc_mem =       1    nspden =       1   nspinor =       1
    nsppol =       1      nsym =       1    n1xccc =    2501    ntypat =       2
    occopt =       1   xclevel =       2
-    mband =          14        mffmem =           1         mkmem =           1
       mpw =       47664          nfft =      944784          nkpt =          72
================================================================================
P This job should need less than                     296.946 Mbytes of memory.
  Rough estimation (10% accuracy) of disk space for files :
_ WF disk file :    733.115 Mbytes ; DEN or POT disk file :      7.210 Mbytes.
================================================================================
 
 
 DATASET   56 : space group P1 (#  1); Bravais aP (primitive triclinic)
================================================================================
 Values of the parameters that define the memory need for DATASET 56.
     intxc =       0    ionmov =       0      iscf =       7    lmnmax =       6
     lnmax =       6     mgfft =     324  mpssoang =       3    mqgrid =   16141
     natom =       3  nloc_mem =       1    nspden =       1   nspinor =       1
    nsppol =       1      nsym =       1    n1xccc =    2501    ntypat =       2
    occopt =       1   xclevel =       2
-    mband =          14        mffmem =           1         mkmem =           2
       mpw =       47670          nfft =      944784          nkpt =          98
================================================================================
P This job should need less than                     307.742 Mbytes of memory.
  Rough estimation (10% accuracy) of disk space for files :
_ WF disk file :    997.976 Mbytes ; DEN or POT disk file :      7.210 Mbytes.
================================================================================
 
 
 DATASET   61 : space group P1 (#  1); Bravais aP (primitive triclinic)
================================================================================
 Values of the parameters that define the memory need for DATASET 61.
     intxc =       0    ionmov =       0      iscf =       7    lmnmax =       6
     lnmax =       6     mgfft =     360  mpssoang =       3    mqgrid =   17014
     natom =       3  nloc_mem =       1    nspden =       1   nspinor =       1
    nsppol =       1      nsym =       1    n1xccc =    2501    ntypat =       2
    occopt =       1   xclevel =       2
-    mband =          14        mffmem =           1         mkmem =           1
       mpw =       55838          nfft =     1049760          nkpt =           8
================================================================================
P This job should need less than                     330.993 Mbytes of memory.
  Rough estimation (10% accuracy) of disk space for files :
_ WF disk file :     95.428 Mbytes ; DEN or POT disk file :      8.011 Mbytes.
================================================================================
 
 
 DATASET   62 : space group P1 (#  1); Bravais aP (primitive triclinic)
================================================================================
 Values of the parameters that define the memory need for DATASET 62.
     intxc =       0    ionmov =       0      iscf =       7    lmnmax =       6
     lnmax =       6     mgfft =     360  mpssoang =       3    mqgrid =   17014
     natom =       3  nloc_mem =       1    nspden =       1   nspinor =       1
    nsppol =       1      nsym =       1    n1xccc =    2501    ntypat =       2
    occopt =       1   xclevel =       2
-    mband =          14        mffmem =           1         mkmem =           1
       mpw =       55896          nfft =     1049760          nkpt =          18
================================================================================
P This job should need less than                     331.047 Mbytes of memory.
  Rough estimation (10% accuracy) of disk space for files :
_ WF disk file :    214.934 Mbytes ; DEN or POT disk file :      8.011 Mbytes.
================================================================================
 
 
 DATASET   63 : space group P1 (#  1); Bravais aP (primitive triclinic)
================================================================================
 Values of the parameters that define the memory need for DATASET 63.
     intxc =       0    ionmov =       0      iscf =       7    lmnmax =       6
     lnmax =       6     mgfft =     360  mpssoang =       3    mqgrid =   17014
     natom =       3  nloc_mem =       1    nspden =       1   nspinor =       1
    nsppol =       1      nsym =       1    n1xccc =    2501    ntypat =       2
    occopt =       1   xclevel =       2
-    mband =          14        mffmem =           1         mkmem =           1
       mpw =       55932          nfft =     1049760          nkpt =          32
================================================================================
P This job should need less than                     331.100 Mbytes of memory.
  Rough estimation (10% accuracy) of disk space for files :
_ WF disk file :    382.350 Mbytes ; DEN or POT disk file :      8.011 Mbytes.
================================================================================
 
 
 DATASET   64 : space group P1 (#  1); Bravais aP (primitive triclinic)
================================================================================
 Values of the parameters that define the memory need for DATASET 64.
     intxc =       0    ionmov =       0      iscf =       7    lmnmax =       6
     lnmax =       6     mgfft =     360  mpssoang =       3    mqgrid =   17014
     natom =       3  nloc_mem =       1    nspden =       1   nspinor =       1
    nsppol =       1      nsym =       1    n1xccc =    2501    ntypat =       2
    occopt =       1   xclevel =       2
-    mband =          14        mffmem =           1         mkmem =           1
       mpw =       55950          nfft =     1049760          nkpt =          50
================================================================================
P This job should need less than                     331.154 Mbytes of memory.
  Rough estimation (10% accuracy) of disk space for files :
_ WF disk file :    597.612 Mbytes ; DEN or POT disk file :      8.011 Mbytes.
================================================================================
 
 
 DATASET   65 : space group P1 (#  1); Bravais aP (primitive triclinic)
================================================================================
 Values of the parameters that define the memory need for DATASET 65.
     intxc =       0    ionmov =       0      iscf =       7    lmnmax =       6
     lnmax =       6     mgfft =     360  mpssoang =       3    mqgrid =   17014
     natom =       3  nloc_mem =       1    nspden =       1   nspinor =       1
    nsppol =       1      nsym =       1    n1xccc =    2501    ntypat =       2
    occopt =       1   xclevel =       2
-    mband =          14        mffmem =           1         mkmem =           1
       mpw =       55952          nfft =     1049760          nkpt =          72
================================================================================
P This job should need less than                     331.209 Mbytes of memory.
  Rough estimation (10% accuracy) of disk space for files :
_ WF disk file :    860.592 Mbytes ; DEN or POT disk file :      8.011 Mbytes.
================================================================================
 
 
 DATASET   66 : space group P1 (#  1); Bravais aP (primitive triclinic)
================================================================================
 Values of the parameters that define the memory need for DATASET 66.
     intxc =       0    ionmov =       0      iscf =       7    lmnmax =       6
     lnmax =       6     mgfft =     360  mpssoang =       3    mqgrid =   17014
     natom =       3  nloc_mem =       1    nspden =       1   nspinor =       1
    nsppol =       1      nsym =       1    n1xccc =    2501    ntypat =       2
    occopt =       1   xclevel =       2
-    mband =          14        mffmem =           1         mkmem =           2
       mpw =       55960          nfft =     1049760          nkpt =          98
================================================================================
P This job should need less than                     343.872 Mbytes of memory.
  Rough estimation (10% accuracy) of disk space for files :
_ WF disk file :   1171.528 Mbytes ; DEN or POT disk file :      8.011 Mbytes.
================================================================================
 
--------------------------------------------------------------------------------
------------- Echo of variables that govern the present computation ------------
--------------------------------------------------------------------------------
-
- outvars: echo of selected default values                                      
-   iomode0 =  0 , fftalg0 =512 , wfoptalg0 =  0
-
- outvars: echo of global parameters not present in the input file              
-  max_nthreads =    0
-
 -outvars: echo values of preprocessed input variables --------
            acell      5.9719125251E+00  5.9719125251E+00  3.7794522658E+01 Bohr
              amu      9.59400000E+01  3.20660000E+01
      chksymbreak           0
             ecut11    5.00000000E+01 Hartree
             ecut12    5.00000000E+01 Hartree
             ecut13    5.00000000E+01 Hartree
             ecut14    5.00000000E+01 Hartree
             ecut15    5.00000000E+01 Hartree
             ecut16    5.00000000E+01 Hartree
             ecut21    6.00000000E+01 Hartree
             ecut22    6.00000000E+01 Hartree
             ecut23    6.00000000E+01 Hartree
             ecut24    6.00000000E+01 Hartree
             ecut25    6.00000000E+01 Hartree
             ecut26    6.00000000E+01 Hartree
             ecut31    7.00000000E+01 Hartree
             ecut32    7.00000000E+01 Hartree
             ecut33    7.00000000E+01 Hartree
             ecut34    7.00000000E+01 Hartree
             ecut35    7.00000000E+01 Hartree
             ecut36    7.00000000E+01 Hartree
             ecut41    8.00000000E+01 Hartree
             ecut42    8.00000000E+01 Hartree
             ecut43    8.00000000E+01 Hartree
             ecut44    8.00000000E+01 Hartree
             ecut45    8.00000000E+01 Hartree
             ecut46    8.00000000E+01 Hartree
             ecut51    9.00000000E+01 Hartree
             ecut52    9.00000000E+01 Hartree
             ecut53    9.00000000E+01 Hartree
             ecut54    9.00000000E+01 Hartree
             ecut55    9.00000000E+01 Hartree
             ecut56    9.00000000E+01 Hartree
             ecut61    1.00000000E+02 Hartree
             ecut62    1.00000000E+02 Hartree
             ecut63    1.00000000E+02 Hartree
             ecut64    1.00000000E+02 Hartree
             ecut65    1.00000000E+02 Hartree
             ecut66    1.00000000E+02 Hartree
-          fftalg         512
           getwfk          -1
              ixc          11
           jdtset       11   12   13   14   15   16   21   22   23   24
                        25   26   31   32   33   34   35   36   41   42
                        43   44   45   46   51   52   53   54   55   56
                        61   62   63   64   65   66
              kpt11    1.25000000E-01  1.25000000E-01  5.00000000E-01
                       3.75000000E-01  1.25000000E-01  5.00000000E-01
                      -3.75000000E-01  1.25000000E-01  5.00000000E-01
                      -1.25000000E-01  1.25000000E-01  5.00000000E-01
                       1.25000000E-01  3.75000000E-01  5.00000000E-01
                       3.75000000E-01  3.75000000E-01  5.00000000E-01
                      -3.75000000E-01  3.75000000E-01  5.00000000E-01
                      -1.25000000E-01  3.75000000E-01  5.00000000E-01
              kpt12    8.33333333E-02  8.33333333E-02  5.00000000E-01
                       2.50000000E-01  8.33333333E-02  5.00000000E-01
                       4.16666667E-01  8.33333333E-02  5.00000000E-01
                      -4.16666667E-01  8.33333333E-02  5.00000000E-01
                      -2.50000000E-01  8.33333333E-02  5.00000000E-01
                      -8.33333333E-02  8.33333333E-02  5.00000000E-01
                       8.33333333E-02  2.50000000E-01  5.00000000E-01
                       2.50000000E-01  2.50000000E-01  5.00000000E-01
                       4.16666667E-01  2.50000000E-01  5.00000000E-01
                      -4.16666667E-01  2.50000000E-01  5.00000000E-01
                      -2.50000000E-01  2.50000000E-01  5.00000000E-01
                      -8.33333333E-02  2.50000000E-01  5.00000000E-01
                       8.33333333E-02  4.16666667E-01  5.00000000E-01
                       2.50000000E-01  4.16666667E-01  5.00000000E-01
                       4.16666667E-01  4.16666667E-01  5.00000000E-01
                      -4.16666667E-01  4.16666667E-01  5.00000000E-01
                      -2.50000000E-01  4.16666667E-01  5.00000000E-01
                      -8.33333333E-02  4.16666667E-01  5.00000000E-01
              kpt13    6.25000000E-02  6.25000000E-02  5.00000000E-01
                       1.87500000E-01  6.25000000E-02  5.00000000E-01
                       3.12500000E-01  6.25000000E-02  5.00000000E-01
                       4.37500000E-01  6.25000000E-02  5.00000000E-01
                      -4.37500000E-01  6.25000000E-02  5.00000000E-01
                      -3.12500000E-01  6.25000000E-02  5.00000000E-01
                      -1.87500000E-01  6.25000000E-02  5.00000000E-01
                      -6.25000000E-02  6.25000000E-02  5.00000000E-01
                       6.25000000E-02  1.87500000E-01  5.00000000E-01
                       1.87500000E-01  1.87500000E-01  5.00000000E-01
                       3.12500000E-01  1.87500000E-01  5.00000000E-01
                       4.37500000E-01  1.87500000E-01  5.00000000E-01
                      -4.37500000E-01  1.87500000E-01  5.00000000E-01
                      -3.12500000E-01  1.87500000E-01  5.00000000E-01
                      -1.87500000E-01  1.87500000E-01  5.00000000E-01
                      -6.25000000E-02  1.87500000E-01  5.00000000E-01
                       6.25000000E-02  3.12500000E-01  5.00000000E-01
                       1.87500000E-01  3.12500000E-01  5.00000000E-01
                       3.12500000E-01  3.12500000E-01  5.00000000E-01
                       4.37500000E-01  3.12500000E-01  5.00000000E-01
                      -4.37500000E-01  3.12500000E-01  5.00000000E-01
                      -3.12500000E-01  3.12500000E-01  5.00000000E-01
                      -1.87500000E-01  3.12500000E-01  5.00000000E-01
                      -6.25000000E-02  3.12500000E-01  5.00000000E-01
                       6.25000000E-02  4.37500000E-01  5.00000000E-01
                       1.87500000E-01  4.37500000E-01  5.00000000E-01
                       3.12500000E-01  4.37500000E-01  5.00000000E-01
                       4.37500000E-01  4.37500000E-01  5.00000000E-01
                      -4.37500000E-01  4.37500000E-01  5.00000000E-01
                      -3.12500000E-01  4.37500000E-01  5.00000000E-01
                      -1.87500000E-01  4.37500000E-01  5.00000000E-01
                      -6.25000000E-02  4.37500000E-01  5.00000000E-01
              kpt14    5.00000000E-02  5.00000000E-02  5.00000000E-01
                       1.50000000E-01  5.00000000E-02  5.00000000E-01
                       2.50000000E-01  5.00000000E-02  5.00000000E-01
                       3.50000000E-01  5.00000000E-02  5.00000000E-01
                       4.50000000E-01  5.00000000E-02  5.00000000E-01
                      -4.50000000E-01  5.00000000E-02  5.00000000E-01
                      -3.50000000E-01  5.00000000E-02  5.00000000E-01
                      -2.50000000E-01  5.00000000E-02  5.00000000E-01
                      -1.50000000E-01  5.00000000E-02  5.00000000E-01
                      -5.00000000E-02  5.00000000E-02  5.00000000E-01
                       5.00000000E-02  1.50000000E-01  5.00000000E-01
                       1.50000000E-01  1.50000000E-01  5.00000000E-01
                       2.50000000E-01  1.50000000E-01  5.00000000E-01
                       3.50000000E-01  1.50000000E-01  5.00000000E-01
                       4.50000000E-01  1.50000000E-01  5.00000000E-01
                      -4.50000000E-01  1.50000000E-01  5.00000000E-01
                      -3.50000000E-01  1.50000000E-01  5.00000000E-01
                      -2.50000000E-01  1.50000000E-01  5.00000000E-01
                      -1.50000000E-01  1.50000000E-01  5.00000000E-01
                      -5.00000000E-02  1.50000000E-01  5.00000000E-01
                       5.00000000E-02  2.50000000E-01  5.00000000E-01
                       1.50000000E-01  2.50000000E-01  5.00000000E-01
                       2.50000000E-01  2.50000000E-01  5.00000000E-01
                       3.50000000E-01  2.50000000E-01  5.00000000E-01
                       4.50000000E-01  2.50000000E-01  5.00000000E-01
                      -4.50000000E-01  2.50000000E-01  5.00000000E-01
                      -3.50000000E-01  2.50000000E-01  5.00000000E-01
                      -2.50000000E-01  2.50000000E-01  5.00000000E-01
                      -1.50000000E-01  2.50000000E-01  5.00000000E-01
                      -5.00000000E-02  2.50000000E-01  5.00000000E-01
                       5.00000000E-02  3.50000000E-01  5.00000000E-01
                       1.50000000E-01  3.50000000E-01  5.00000000E-01
                       2.50000000E-01  3.50000000E-01  5.00000000E-01
                       3.50000000E-01  3.50000000E-01  5.00000000E-01
                       4.50000000E-01  3.50000000E-01  5.00000000E-01
                      -4.50000000E-01  3.50000000E-01  5.00000000E-01
                      -3.50000000E-01  3.50000000E-01  5.00000000E-01
                      -2.50000000E-01  3.50000000E-01  5.00000000E-01
                      -1.50000000E-01  3.50000000E-01  5.00000000E-01
                      -5.00000000E-02  3.50000000E-01  5.00000000E-01
                       5.00000000E-02  4.50000000E-01  5.00000000E-01
                       1.50000000E-01  4.50000000E-01  5.00000000E-01
                       2.50000000E-01  4.50000000E-01  5.00000000E-01
                       3.50000000E-01  4.50000000E-01  5.00000000E-01
                       4.50000000E-01  4.50000000E-01  5.00000000E-01
                      -4.50000000E-01  4.50000000E-01  5.00000000E-01
                      -3.50000000E-01  4.50000000E-01  5.00000000E-01
                      -2.50000000E-01  4.50000000E-01  5.00000000E-01
                      -1.50000000E-01  4.50000000E-01  5.00000000E-01
                      -5.00000000E-02  4.50000000E-01  5.00000000E-01
              kpt15    4.16666667E-02  4.16666667E-02  5.00000000E-01
                       1.25000000E-01  4.16666667E-02  5.00000000E-01
                       2.08333333E-01  4.16666667E-02  5.00000000E-01
                       2.91666667E-01  4.16666667E-02  5.00000000E-01
                       3.75000000E-01  4.16666667E-02  5.00000000E-01
                       4.58333333E-01  4.16666667E-02  5.00000000E-01
                      -4.58333333E-01  4.16666667E-02  5.00000000E-01
                      -3.75000000E-01  4.16666667E-02  5.00000000E-01
                      -2.91666667E-01  4.16666667E-02  5.00000000E-01
                      -2.08333333E-01  4.16666667E-02  5.00000000E-01
                      -1.25000000E-01  4.16666667E-02  5.00000000E-01
                      -4.16666667E-02  4.16666667E-02  5.00000000E-01
                       4.16666667E-02  1.25000000E-01  5.00000000E-01
                       1.25000000E-01  1.25000000E-01  5.00000000E-01
                       2.08333333E-01  1.25000000E-01  5.00000000E-01
                       2.91666667E-01  1.25000000E-01  5.00000000E-01
                       3.75000000E-01  1.25000000E-01  5.00000000E-01
                       4.58333333E-01  1.25000000E-01  5.00000000E-01
                      -4.58333333E-01  1.25000000E-01  5.00000000E-01
                      -3.75000000E-01  1.25000000E-01  5.00000000E-01
                      -2.91666667E-01  1.25000000E-01  5.00000000E-01
                      -2.08333333E-01  1.25000000E-01  5.00000000E-01
                      -1.25000000E-01  1.25000000E-01  5.00000000E-01
                      -4.16666667E-02  1.25000000E-01  5.00000000E-01
                       4.16666667E-02  2.08333333E-01  5.00000000E-01
                       1.25000000E-01  2.08333333E-01  5.00000000E-01
                       2.08333333E-01  2.08333333E-01  5.00000000E-01
                       2.91666667E-01  2.08333333E-01  5.00000000E-01
                       3.75000000E-01  2.08333333E-01  5.00000000E-01
                       4.58333333E-01  2.08333333E-01  5.00000000E-01
                      -4.58333333E-01  2.08333333E-01  5.00000000E-01
                      -3.75000000E-01  2.08333333E-01  5.00000000E-01
                      -2.91666667E-01  2.08333333E-01  5.00000000E-01
                      -2.08333333E-01  2.08333333E-01  5.00000000E-01
                      -1.25000000E-01  2.08333333E-01  5.00000000E-01
                      -4.16666667E-02  2.08333333E-01  5.00000000E-01
                       4.16666667E-02  2.91666667E-01  5.00000000E-01
                       1.25000000E-01  2.91666667E-01  5.00000000E-01
                       2.08333333E-01  2.91666667E-01  5.00000000E-01
                       2.91666667E-01  2.91666667E-01  5.00000000E-01
                       3.75000000E-01  2.91666667E-01  5.00000000E-01
                       4.58333333E-01  2.91666667E-01  5.00000000E-01
                      -4.58333333E-01  2.91666667E-01  5.00000000E-01
                      -3.75000000E-01  2.91666667E-01  5.00000000E-01
                      -2.91666667E-01  2.91666667E-01  5.00000000E-01
                      -2.08333333E-01  2.91666667E-01  5.00000000E-01
                      -1.25000000E-01  2.91666667E-01  5.00000000E-01
                      -4.16666667E-02  2.91666667E-01  5.00000000E-01
                       4.16666667E-02  3.75000000E-01  5.00000000E-01
                       1.25000000E-01  3.75000000E-01  5.00000000E-01
              kpt16    3.57142857E-02  3.57142857E-02  5.00000000E-01
                       1.07142857E-01  3.57142857E-02  5.00000000E-01
                       1.78571429E-01  3.57142857E-02  5.00000000E-01
                       2.50000000E-01  3.57142857E-02  5.00000000E-01
                       3.21428571E-01  3.57142857E-02  5.00000000E-01
                       3.92857143E-01  3.57142857E-02  5.00000000E-01
                       4.64285714E-01  3.57142857E-02  5.00000000E-01
                      -4.64285714E-01  3.57142857E-02  5.00000000E-01
                      -3.92857143E-01  3.57142857E-02  5.00000000E-01
                      -3.21428571E-01  3.57142857E-02  5.00000000E-01
                      -2.50000000E-01  3.57142857E-02  5.00000000E-01
                      -1.78571429E-01  3.57142857E-02  5.00000000E-01
                      -1.07142857E-01  3.57142857E-02  5.00000000E-01
                      -3.57142857E-02  3.57142857E-02  5.00000000E-01
                       3.57142857E-02  1.07142857E-01  5.00000000E-01
                       1.07142857E-01  1.07142857E-01  5.00000000E-01
                       1.78571429E-01  1.07142857E-01  5.00000000E-01
                       2.50000000E-01  1.07142857E-01  5.00000000E-01
                       3.21428571E-01  1.07142857E-01  5.00000000E-01
                       3.92857143E-01  1.07142857E-01  5.00000000E-01
                       4.64285714E-01  1.07142857E-01  5.00000000E-01
                      -4.64285714E-01  1.07142857E-01  5.00000000E-01
                      -3.92857143E-01  1.07142857E-01  5.00000000E-01
                      -3.21428571E-01  1.07142857E-01  5.00000000E-01
                      -2.50000000E-01  1.07142857E-01  5.00000000E-01
                      -1.78571429E-01  1.07142857E-01  5.00000000E-01
                      -1.07142857E-01  1.07142857E-01  5.00000000E-01
                      -3.57142857E-02  1.07142857E-01  5.00000000E-01
                       3.57142857E-02  1.78571429E-01  5.00000000E-01
                       1.07142857E-01  1.78571429E-01  5.00000000E-01
                       1.78571429E-01  1.78571429E-01  5.00000000E-01
                       2.50000000E-01  1.78571429E-01  5.00000000E-01
                       3.21428571E-01  1.78571429E-01  5.00000000E-01
                       3.92857143E-01  1.78571429E-01  5.00000000E-01
                       4.64285714E-01  1.78571429E-01  5.00000000E-01
                      -4.64285714E-01  1.78571429E-01  5.00000000E-01
                      -3.92857143E-01  1.78571429E-01  5.00000000E-01
                      -3.21428571E-01  1.78571429E-01  5.00000000E-01
                      -2.50000000E-01  1.78571429E-01  5.00000000E-01
                      -1.78571429E-01  1.78571429E-01  5.00000000E-01
                      -1.07142857E-01  1.78571429E-01  5.00000000E-01
                      -3.57142857E-02  1.78571429E-01  5.00000000E-01
                       3.57142857E-02  2.50000000E-01  5.00000000E-01
                       1.07142857E-01  2.50000000E-01  5.00000000E-01
                       1.78571429E-01  2.50000000E-01  5.00000000E-01
                       2.50000000E-01  2.50000000E-01  5.00000000E-01
                       3.21428571E-01  2.50000000E-01  5.00000000E-01
                       3.92857143E-01  2.50000000E-01  5.00000000E-01
                       4.64285714E-01  2.50000000E-01  5.00000000E-01
                      -4.64285714E-01  2.50000000E-01  5.00000000E-01
              kpt21    1.25000000E-01  1.25000000E-01  5.00000000E-01
                       3.75000000E-01  1.25000000E-01  5.00000000E-01
                      -3.75000000E-01  1.25000000E-01  5.00000000E-01
                      -1.25000000E-01  1.25000000E-01  5.00000000E-01
                       1.25000000E-01  3.75000000E-01  5.00000000E-01
                       3.75000000E-01  3.75000000E-01  5.00000000E-01
                      -3.75000000E-01  3.75000000E-01  5.00000000E-01
                      -1.25000000E-01  3.75000000E-01  5.00000000E-01
              kpt22    8.33333333E-02  8.33333333E-02  5.00000000E-01
                       2.50000000E-01  8.33333333E-02  5.00000000E-01
                       4.16666667E-01  8.33333333E-02  5.00000000E-01
                      -4.16666667E-01  8.33333333E-02  5.00000000E-01
                      -2.50000000E-01  8.33333333E-02  5.00000000E-01
                      -8.33333333E-02  8.33333333E-02  5.00000000E-01
                       8.33333333E-02  2.50000000E-01  5.00000000E-01
                       2.50000000E-01  2.50000000E-01  5.00000000E-01
                       4.16666667E-01  2.50000000E-01  5.00000000E-01
                      -4.16666667E-01  2.50000000E-01  5.00000000E-01
                      -2.50000000E-01  2.50000000E-01  5.00000000E-01
                      -8.33333333E-02  2.50000000E-01  5.00000000E-01
                       8.33333333E-02  4.16666667E-01  5.00000000E-01
                       2.50000000E-01  4.16666667E-01  5.00000000E-01
                       4.16666667E-01  4.16666667E-01  5.00000000E-01
                      -4.16666667E-01  4.16666667E-01  5.00000000E-01
                      -2.50000000E-01  4.16666667E-01  5.00000000E-01
                      -8.33333333E-02  4.16666667E-01  5.00000000E-01
              kpt23    6.25000000E-02  6.25000000E-02  5.00000000E-01
                       1.87500000E-01  6.25000000E-02  5.00000000E-01
                       3.12500000E-01  6.25000000E-02  5.00000000E-01
                       4.37500000E-01  6.25000000E-02  5.00000000E-01
                      -4.37500000E-01  6.25000000E-02  5.00000000E-01
                      -3.12500000E-01  6.25000000E-02  5.00000000E-01
                      -1.87500000E-01  6.25000000E-02  5.00000000E-01
                      -6.25000000E-02  6.25000000E-02  5.00000000E-01
                       6.25000000E-02  1.87500000E-01  5.00000000E-01
                       1.87500000E-01  1.87500000E-01  5.00000000E-01
                       3.12500000E-01  1.87500000E-01  5.00000000E-01
                       4.37500000E-01  1.87500000E-01  5.00000000E-01
                      -4.37500000E-01  1.87500000E-01  5.00000000E-01
                      -3.12500000E-01  1.87500000E-01  5.00000000E-01
                      -1.87500000E-01  1.87500000E-01  5.00000000E-01
                      -6.25000000E-02  1.87500000E-01  5.00000000E-01
                       6.25000000E-02  3.12500000E-01  5.00000000E-01
                       1.87500000E-01  3.12500000E-01  5.00000000E-01
                       3.12500000E-01  3.12500000E-01  5.00000000E-01
                       4.37500000E-01  3.12500000E-01  5.00000000E-01
                      -4.37500000E-01  3.12500000E-01  5.00000000E-01
                      -3.12500000E-01  3.12500000E-01  5.00000000E-01
                      -1.87500000E-01  3.12500000E-01  5.00000000E-01
                      -6.25000000E-02  3.12500000E-01  5.00000000E-01
                       6.25000000E-02  4.37500000E-01  5.00000000E-01
                       1.87500000E-01  4.37500000E-01  5.00000000E-01
                       3.12500000E-01  4.37500000E-01  5.00000000E-01
                       4.37500000E-01  4.37500000E-01  5.00000000E-01
                      -4.37500000E-01  4.37500000E-01  5.00000000E-01
                      -3.12500000E-01  4.37500000E-01  5.00000000E-01
                      -1.87500000E-01  4.37500000E-01  5.00000000E-01
                      -6.25000000E-02  4.37500000E-01  5.00000000E-01
              kpt24    5.00000000E-02  5.00000000E-02  5.00000000E-01
                       1.50000000E-01  5.00000000E-02  5.00000000E-01
                       2.50000000E-01  5.00000000E-02  5.00000000E-01
                       3.50000000E-01  5.00000000E-02  5.00000000E-01
                       4.50000000E-01  5.00000000E-02  5.00000000E-01
                      -4.50000000E-01  5.00000000E-02  5.00000000E-01
                      -3.50000000E-01  5.00000000E-02  5.00000000E-01
                      -2.50000000E-01  5.00000000E-02  5.00000000E-01
                      -1.50000000E-01  5.00000000E-02  5.00000000E-01
                      -5.00000000E-02  5.00000000E-02  5.00000000E-01
                       5.00000000E-02  1.50000000E-01  5.00000000E-01
                       1.50000000E-01  1.50000000E-01  5.00000000E-01
                       2.50000000E-01  1.50000000E-01  5.00000000E-01
                       3.50000000E-01  1.50000000E-01  5.00000000E-01
                       4.50000000E-01  1.50000000E-01  5.00000000E-01
                      -4.50000000E-01  1.50000000E-01  5.00000000E-01
                      -3.50000000E-01  1.50000000E-01  5.00000000E-01
                      -2.50000000E-01  1.50000000E-01  5.00000000E-01
                      -1.50000000E-01  1.50000000E-01  5.00000000E-01
                      -5.00000000E-02  1.50000000E-01  5.00000000E-01
                       5.00000000E-02  2.50000000E-01  5.00000000E-01
                       1.50000000E-01  2.50000000E-01  5.00000000E-01
                       2.50000000E-01  2.50000000E-01  5.00000000E-01
                       3.50000000E-01  2.50000000E-01  5.00000000E-01
                       4.50000000E-01  2.50000000E-01  5.00000000E-01
                      -4.50000000E-01  2.50000000E-01  5.00000000E-01
                      -3.50000000E-01  2.50000000E-01  5.00000000E-01
                      -2.50000000E-01  2.50000000E-01  5.00000000E-01
                      -1.50000000E-01  2.50000000E-01  5.00000000E-01
                      -5.00000000E-02  2.50000000E-01  5.00000000E-01
                       5.00000000E-02  3.50000000E-01  5.00000000E-01
                       1.50000000E-01  3.50000000E-01  5.00000000E-01
                       2.50000000E-01  3.50000000E-01  5.00000000E-01
                       3.50000000E-01  3.50000000E-01  5.00000000E-01
                       4.50000000E-01  3.50000000E-01  5.00000000E-01
                      -4.50000000E-01  3.50000000E-01  5.00000000E-01
                      -3.50000000E-01  3.50000000E-01  5.00000000E-01
                      -2.50000000E-01  3.50000000E-01  5.00000000E-01
                      -1.50000000E-01  3.50000000E-01  5.00000000E-01
                      -5.00000000E-02  3.50000000E-01  5.00000000E-01
                       5.00000000E-02  4.50000000E-01  5.00000000E-01
                       1.50000000E-01  4.50000000E-01  5.00000000E-01
                       2.50000000E-01  4.50000000E-01  5.00000000E-01
                       3.50000000E-01  4.50000000E-01  5.00000000E-01
                       4.50000000E-01  4.50000000E-01  5.00000000E-01
                      -4.50000000E-01  4.50000000E-01  5.00000000E-01
                      -3.50000000E-01  4.50000000E-01  5.00000000E-01
                      -2.50000000E-01  4.50000000E-01  5.00000000E-01
                      -1.50000000E-01  4.50000000E-01  5.00000000E-01
                      -5.00000000E-02  4.50000000E-01  5.00000000E-01
              kpt25    4.16666667E-02  4.16666667E-02  5.00000000E-01
                       1.25000000E-01  4.16666667E-02  5.00000000E-01
                       2.08333333E-01  4.16666667E-02  5.00000000E-01
                       2.91666667E-01  4.16666667E-02  5.00000000E-01
                       3.75000000E-01  4.16666667E-02  5.00000000E-01
                       4.58333333E-01  4.16666667E-02  5.00000000E-01
                      -4.58333333E-01  4.16666667E-02  5.00000000E-01
                      -3.75000000E-01  4.16666667E-02  5.00000000E-01
                      -2.91666667E-01  4.16666667E-02  5.00000000E-01
                      -2.08333333E-01  4.16666667E-02  5.00000000E-01
                      -1.25000000E-01  4.16666667E-02  5.00000000E-01
                      -4.16666667E-02  4.16666667E-02  5.00000000E-01
                       4.16666667E-02  1.25000000E-01  5.00000000E-01
                       1.25000000E-01  1.25000000E-01  5.00000000E-01
                       2.08333333E-01  1.25000000E-01  5.00000000E-01
                       2.91666667E-01  1.25000000E-01  5.00000000E-01
                       3.75000000E-01  1.25000000E-01  5.00000000E-01
                       4.58333333E-01  1.25000000E-01  5.00000000E-01
                      -4.58333333E-01  1.25000000E-01  5.00000000E-01
                      -3.75000000E-01  1.25000000E-01  5.00000000E-01
                      -2.91666667E-01  1.25000000E-01  5.00000000E-01
                      -2.08333333E-01  1.25000000E-01  5.00000000E-01
                      -1.25000000E-01  1.25000000E-01  5.00000000E-01
                      -4.16666667E-02  1.25000000E-01  5.00000000E-01
                       4.16666667E-02  2.08333333E-01  5.00000000E-01
                       1.25000000E-01  2.08333333E-01  5.00000000E-01
                       2.08333333E-01  2.08333333E-01  5.00000000E-01
                       2.91666667E-01  2.08333333E-01  5.00000000E-01
                       3.75000000E-01  2.08333333E-01  5.00000000E-01
                       4.58333333E-01  2.08333333E-01  5.00000000E-01
                      -4.58333333E-01  2.08333333E-01  5.00000000E-01
                      -3.75000000E-01  2.08333333E-01  5.00000000E-01
                      -2.91666667E-01  2.08333333E-01  5.00000000E-01
                      -2.08333333E-01  2.08333333E-01  5.00000000E-01
                      -1.25000000E-01  2.08333333E-01  5.00000000E-01
                      -4.16666667E-02  2.08333333E-01  5.00000000E-01
                       4.16666667E-02  2.91666667E-01  5.00000000E-01
                       1.25000000E-01  2.91666667E-01  5.00000000E-01
                       2.08333333E-01  2.91666667E-01  5.00000000E-01
                       2.91666667E-01  2.91666667E-01  5.00000000E-01
                       3.75000000E-01  2.91666667E-01  5.00000000E-01
                       4.58333333E-01  2.91666667E-01  5.00000000E-01
                      -4.58333333E-01  2.91666667E-01  5.00000000E-01
                      -3.75000000E-01  2.91666667E-01  5.00000000E-01
                      -2.91666667E-01  2.91666667E-01  5.00000000E-01
                      -2.08333333E-01  2.91666667E-01  5.00000000E-01
                      -1.25000000E-01  2.91666667E-01  5.00000000E-01
                      -4.16666667E-02  2.91666667E-01  5.00000000E-01
                       4.16666667E-02  3.75000000E-01  5.00000000E-01
                       1.25000000E-01  3.75000000E-01  5.00000000E-01
              kpt26    3.57142857E-02  3.57142857E-02  5.00000000E-01
                       1.07142857E-01  3.57142857E-02  5.00000000E-01
                       1.78571429E-01  3.57142857E-02  5.00000000E-01
                       2.50000000E-01  3.57142857E-02  5.00000000E-01
                       3.21428571E-01  3.57142857E-02  5.00000000E-01
                       3.92857143E-01  3.57142857E-02  5.00000000E-01
                       4.64285714E-01  3.57142857E-02  5.00000000E-01
                      -4.64285714E-01  3.57142857E-02  5.00000000E-01
                      -3.92857143E-01  3.57142857E-02  5.00000000E-01
                      -3.21428571E-01  3.57142857E-02  5.00000000E-01
                      -2.50000000E-01  3.57142857E-02  5.00000000E-01
                      -1.78571429E-01  3.57142857E-02  5.00000000E-01
                      -1.07142857E-01  3.57142857E-02  5.00000000E-01
                      -3.57142857E-02  3.57142857E-02  5.00000000E-01
                       3.57142857E-02  1.07142857E-01  5.00000000E-01
                       1.07142857E-01  1.07142857E-01  5.00000000E-01
                       1.78571429E-01  1.07142857E-01  5.00000000E-01
                       2.50000000E-01  1.07142857E-01  5.00000000E-01
                       3.21428571E-01  1.07142857E-01  5.00000000E-01
                       3.92857143E-01  1.07142857E-01  5.00000000E-01
                       4.64285714E-01  1.07142857E-01  5.00000000E-01
                      -4.64285714E-01  1.07142857E-01  5.00000000E-01
                      -3.92857143E-01  1.07142857E-01  5.00000000E-01
                      -3.21428571E-01  1.07142857E-01  5.00000000E-01
                      -2.50000000E-01  1.07142857E-01  5.00000000E-01
                      -1.78571429E-01  1.07142857E-01  5.00000000E-01
                      -1.07142857E-01  1.07142857E-01  5.00000000E-01
                      -3.57142857E-02  1.07142857E-01  5.00000000E-01
                       3.57142857E-02  1.78571429E-01  5.00000000E-01
                       1.07142857E-01  1.78571429E-01  5.00000000E-01
                       1.78571429E-01  1.78571429E-01  5.00000000E-01
                       2.50000000E-01  1.78571429E-01  5.00000000E-01
                       3.21428571E-01  1.78571429E-01  5.00000000E-01
                       3.92857143E-01  1.78571429E-01  5.00000000E-01
                       4.64285714E-01  1.78571429E-01  5.00000000E-01
                      -4.64285714E-01  1.78571429E-01  5.00000000E-01
                      -3.92857143E-01  1.78571429E-01  5.00000000E-01
                      -3.21428571E-01  1.78571429E-01  5.00000000E-01
                      -2.50000000E-01  1.78571429E-01  5.00000000E-01
                      -1.78571429E-01  1.78571429E-01  5.00000000E-01
                      -1.07142857E-01  1.78571429E-01  5.00000000E-01
                      -3.57142857E-02  1.78571429E-01  5.00000000E-01
                       3.57142857E-02  2.50000000E-01  5.00000000E-01
                       1.07142857E-01  2.50000000E-01  5.00000000E-01
                       1.78571429E-01  2.50000000E-01  5.00000000E-01
                       2.50000000E-01  2.50000000E-01  5.00000000E-01
                       3.21428571E-01  2.50000000E-01  5.00000000E-01
                       3.92857143E-01  2.50000000E-01  5.00000000E-01
                       4.64285714E-01  2.50000000E-01  5.00000000E-01
                      -4.64285714E-01  2.50000000E-01  5.00000000E-01
              kpt31    1.25000000E-01  1.25000000E-01  5.00000000E-01
                       3.75000000E-01  1.25000000E-01  5.00000000E-01
                      -3.75000000E-01  1.25000000E-01  5.00000000E-01
                      -1.25000000E-01  1.25000000E-01  5.00000000E-01
                       1.25000000E-01  3.75000000E-01  5.00000000E-01
                       3.75000000E-01  3.75000000E-01  5.00000000E-01
                      -3.75000000E-01  3.75000000E-01  5.00000000E-01
                      -1.25000000E-01  3.75000000E-01  5.00000000E-01
              kpt32    8.33333333E-02  8.33333333E-02  5.00000000E-01
                       2.50000000E-01  8.33333333E-02  5.00000000E-01
                       4.16666667E-01  8.33333333E-02  5.00000000E-01
                      -4.16666667E-01  8.33333333E-02  5.00000000E-01
                      -2.50000000E-01  8.33333333E-02  5.00000000E-01
                      -8.33333333E-02  8.33333333E-02  5.00000000E-01
                       8.33333333E-02  2.50000000E-01  5.00000000E-01
                       2.50000000E-01  2.50000000E-01  5.00000000E-01
                       4.16666667E-01  2.50000000E-01  5.00000000E-01
                      -4.16666667E-01  2.50000000E-01  5.00000000E-01
                      -2.50000000E-01  2.50000000E-01  5.00000000E-01
                      -8.33333333E-02  2.50000000E-01  5.00000000E-01
                       8.33333333E-02  4.16666667E-01  5.00000000E-01
                       2.50000000E-01  4.16666667E-01  5.00000000E-01
                       4.16666667E-01  4.16666667E-01  5.00000000E-01
                      -4.16666667E-01  4.16666667E-01  5.00000000E-01
                      -2.50000000E-01  4.16666667E-01  5.00000000E-01
                      -8.33333333E-02  4.16666667E-01  5.00000000E-01
              kpt33    6.25000000E-02  6.25000000E-02  5.00000000E-01
                       1.87500000E-01  6.25000000E-02  5.00000000E-01
                       3.12500000E-01  6.25000000E-02  5.00000000E-01
                       4.37500000E-01  6.25000000E-02  5.00000000E-01
                      -4.37500000E-01  6.25000000E-02  5.00000000E-01
                      -3.12500000E-01  6.25000000E-02  5.00000000E-01
                      -1.87500000E-01  6.25000000E-02  5.00000000E-01
                      -6.25000000E-02  6.25000000E-02  5.00000000E-01
                       6.25000000E-02  1.87500000E-01  5.00000000E-01
                       1.87500000E-01  1.87500000E-01  5.00000000E-01
                       3.12500000E-01  1.87500000E-01  5.00000000E-01
                       4.37500000E-01  1.87500000E-01  5.00000000E-01
                      -4.37500000E-01  1.87500000E-01  5.00000000E-01
                      -3.12500000E-01  1.87500000E-01  5.00000000E-01
                      -1.87500000E-01  1.87500000E-01  5.00000000E-01
                      -6.25000000E-02  1.87500000E-01  5.00000000E-01
                       6.25000000E-02  3.12500000E-01  5.00000000E-01
                       1.87500000E-01  3.12500000E-01  5.00000000E-01
                       3.12500000E-01  3.12500000E-01  5.00000000E-01
                       4.37500000E-01  3.12500000E-01  5.00000000E-01
                      -4.37500000E-01  3.12500000E-01  5.00000000E-01
                      -3.12500000E-01  3.12500000E-01  5.00000000E-01
                      -1.87500000E-01  3.12500000E-01  5.00000000E-01
                      -6.25000000E-02  3.12500000E-01  5.00000000E-01
                       6.25000000E-02  4.37500000E-01  5.00000000E-01
                       1.87500000E-01  4.37500000E-01  5.00000000E-01
                       3.12500000E-01  4.37500000E-01  5.00000000E-01
                       4.37500000E-01  4.37500000E-01  5.00000000E-01
                      -4.37500000E-01  4.37500000E-01  5.00000000E-01
                      -3.12500000E-01  4.37500000E-01  5.00000000E-01
                      -1.87500000E-01  4.37500000E-01  5.00000000E-01
                      -6.25000000E-02  4.37500000E-01  5.00000000E-01
              kpt34    5.00000000E-02  5.00000000E-02  5.00000000E-01
                       1.50000000E-01  5.00000000E-02  5.00000000E-01
                       2.50000000E-01  5.00000000E-02  5.00000000E-01
                       3.50000000E-01  5.00000000E-02  5.00000000E-01
                       4.50000000E-01  5.00000000E-02  5.00000000E-01
                      -4.50000000E-01  5.00000000E-02  5.00000000E-01
                      -3.50000000E-01  5.00000000E-02  5.00000000E-01
                      -2.50000000E-01  5.00000000E-02  5.00000000E-01
                      -1.50000000E-01  5.00000000E-02  5.00000000E-01
                      -5.00000000E-02  5.00000000E-02  5.00000000E-01
                       5.00000000E-02  1.50000000E-01  5.00000000E-01
                       1.50000000E-01  1.50000000E-01  5.00000000E-01
                       2.50000000E-01  1.50000000E-01  5.00000000E-01
                       3.50000000E-01  1.50000000E-01  5.00000000E-01
                       4.50000000E-01  1.50000000E-01  5.00000000E-01
                      -4.50000000E-01  1.50000000E-01  5.00000000E-01
                      -3.50000000E-01  1.50000000E-01  5.00000000E-01
                      -2.50000000E-01  1.50000000E-01  5.00000000E-01
                      -1.50000000E-01  1.50000000E-01  5.00000000E-01
                      -5.00000000E-02  1.50000000E-01  5.00000000E-01
                       5.00000000E-02  2.50000000E-01  5.00000000E-01
                       1.50000000E-01  2.50000000E-01  5.00000000E-01
                       2.50000000E-01  2.50000000E-01  5.00000000E-01
                       3.50000000E-01  2.50000000E-01  5.00000000E-01
                       4.50000000E-01  2.50000000E-01  5.00000000E-01
                      -4.50000000E-01  2.50000000E-01  5.00000000E-01
                      -3.50000000E-01  2.50000000E-01  5.00000000E-01
                      -2.50000000E-01  2.50000000E-01  5.00000000E-01
                      -1.50000000E-01  2.50000000E-01  5.00000000E-01
                      -5.00000000E-02  2.50000000E-01  5.00000000E-01
                       5.00000000E-02  3.50000000E-01  5.00000000E-01
                       1.50000000E-01  3.50000000E-01  5.00000000E-01
                       2.50000000E-01  3.50000000E-01  5.00000000E-01
[...]
                         0.01389    0.01389
              wtk26      0.01020    0.01020    0.01020    0.01020    0.01020    0.01020
                         0.01020    0.01020    0.01020    0.01020    0.01020    0.01020
                         0.01020    0.01020    0.01020    0.01020    0.01020    0.01020
                         0.01020    0.01020    0.01020    0.01020    0.01020    0.01020
                         0.01020    0.01020    0.01020    0.01020    0.01020    0.01020
                         0.01020    0.01020    0.01020    0.01020    0.01020    0.01020
                         0.01020    0.01020    0.01020    0.01020    0.01020    0.01020
                         0.01020    0.01020    0.01020    0.01020    0.01020    0.01020
                         0.01020    0.01020
              wtk31      0.12500    0.12500    0.12500    0.12500    0.12500    0.12500
                         0.12500    0.12500
              wtk32      0.05556    0.05556    0.05556    0.05556    0.05556    0.05556
                         0.05556    0.05556    0.05556    0.05556    0.05556    0.05556
                         0.05556    0.05556    0.05556    0.05556    0.05556    0.05556
              wtk33      0.03125    0.03125    0.03125    0.03125    0.03125    0.03125
                         0.03125    0.03125    0.03125    0.03125    0.03125    0.03125
                         0.03125    0.03125    0.03125    0.03125    0.03125    0.03125
                         0.03125    0.03125    0.03125    0.03125    0.03125    0.03125
                         0.03125    0.03125    0.03125    0.03125    0.03125    0.03125
                         0.03125    0.03125
              wtk34      0.02000    0.02000    0.02000    0.02000    0.02000    0.02000
                         0.02000    0.02000    0.02000    0.02000    0.02000    0.02000
                         0.02000    0.02000    0.02000    0.02000    0.02000    0.02000
                         0.02000    0.02000    0.02000    0.02000    0.02000    0.02000
                         0.02000    0.02000    0.02000    0.02000    0.02000    0.02000
                         0.02000    0.02000    0.02000    0.02000    0.02000    0.02000
                         0.02000    0.02000    0.02000    0.02000    0.02000    0.02000
                         0.02000    0.02000    0.02000    0.02000    0.02000    0.02000
                         0.02000    0.02000
              wtk35      0.01389    0.01389    0.01389    0.01389    0.01389    0.01389
                         0.01389    0.01389    0.01389    0.01389    0.01389    0.01389
                         0.01389    0.01389    0.01389    0.01389    0.01389    0.01389
                         0.01389    0.01389    0.01389    0.01389    0.01389    0.01389
                         0.01389    0.01389    0.01389    0.01389    0.01389    0.01389
                         0.01389    0.01389    0.01389    0.01389    0.01389    0.01389
                         0.01389    0.01389    0.01389    0.01389    0.01389    0.01389
                         0.01389    0.01389    0.01389    0.01389    0.01389    0.01389
                         0.01389    0.01389
              wtk36      0.01020    0.01020    0.01020    0.01020    0.01020    0.01020
                         0.01020    0.01020    0.01020    0.01020    0.01020    0.01020
                         0.01020    0.01020    0.01020    0.01020    0.01020    0.01020
                         0.01020    0.01020    0.01020    0.01020    0.01020    0.01020
                         0.01020    0.01020    0.01020    0.01020    0.01020    0.01020
                         0.01020    0.01020    0.01020    0.01020    0.01020    0.01020
                         0.01020    0.01020    0.01020    0.01020    0.01020    0.01020
                         0.01020    0.01020    0.01020    0.01020    0.01020    0.01020
                         0.01020    0.01020
              wtk41      0.12500    0.12500    0.12500    0.12500    0.12500    0.12500
                         0.12500    0.12500
              wtk42      0.05556    0.05556    0.05556    0.05556    0.05556    0.05556
                         0.05556    0.05556    0.05556    0.05556    0.05556    0.05556
                         0.05556    0.05556    0.05556    0.05556    0.05556    0.05556
              wtk43      0.03125    0.03125    0.03125    0.03125    0.03125    0.03125
                         0.03125    0.03125    0.03125    0.03125    0.03125    0.03125
                         0.03125    0.03125    0.03125    0.03125    0.03125    0.03125
                         0.03125    0.03125    0.03125    0.03125    0.03125    0.03125
                         0.03125    0.03125    0.03125    0.03125    0.03125    0.03125
                         0.03125    0.03125
              wtk44      0.02000    0.02000    0.02000    0.02000    0.02000    0.02000
                         0.02000    0.02000    0.02000    0.02000    0.02000    0.02000
                         0.02000    0.02000    0.02000    0.02000    0.02000    0.02000
                         0.02000    0.02000    0.02000    0.02000    0.02000    0.02000
                         0.02000    0.02000    0.02000    0.02000    0.02000    0.02000
                         0.02000    0.02000    0.02000    0.02000    0.02000    0.02000
                         0.02000    0.02000    0.02000    0.02000    0.02000    0.02000
                         0.02000    0.02000    0.02000    0.02000    0.02000    0.02000
                         0.02000    0.02000
              wtk45      0.01389    0.01389    0.01389    0.01389    0.01389    0.01389
                         0.01389    0.01389    0.01389    0.01389    0.01389    0.01389
                         0.01389    0.01389    0.01389    0.01389    0.01389    0.01389
                         0.01389    0.01389    0.01389    0.01389    0.01389    0.01389
                         0.01389    0.01389    0.01389    0.01389    0.01389    0.01389
                         0.01389    0.01389    0.01389    0.01389    0.01389    0.01389
                         0.01389    0.01389    0.01389    0.01389    0.01389    0.01389
                         0.01389    0.01389    0.01389    0.01389    0.01389    0.01389
                         0.01389    0.01389
              wtk46      0.01020    0.01020    0.01020    0.01020    0.01020    0.01020
                         0.01020    0.01020    0.01020    0.01020    0.01020    0.01020
                         0.01020    0.01020    0.01020    0.01020    0.01020    0.01020
                         0.01020    0.01020    0.01020    0.01020    0.01020    0.01020
                         0.01020    0.01020    0.01020    0.01020    0.01020    0.01020
                         0.01020    0.01020    0.01020    0.01020    0.01020    0.01020
                         0.01020    0.01020    0.01020    0.01020    0.01020    0.01020
                         0.01020    0.01020    0.01020    0.01020    0.01020    0.01020
                         0.01020    0.01020
              wtk51      0.12500    0.12500    0.12500    0.12500    0.12500    0.12500
                         0.12500    0.12500
              wtk52      0.05556    0.05556    0.05556    0.05556    0.05556    0.05556
                         0.05556    0.05556    0.05556    0.05556    0.05556    0.05556
                         0.05556    0.05556    0.05556    0.05556    0.05556    0.05556
              wtk53      0.03125    0.03125    0.03125    0.03125    0.03125    0.03125
                         0.03125    0.03125    0.03125    0.03125    0.03125    0.03125
                         0.03125    0.03125    0.03125    0.03125    0.03125    0.03125
                         0.03125    0.03125    0.03125    0.03125    0.03125    0.03125
                         0.03125    0.03125    0.03125    0.03125    0.03125    0.03125
                         0.03125    0.03125
              wtk54      0.02000    0.02000    0.02000    0.02000    0.02000    0.02000
                         0.02000    0.02000    0.02000    0.02000    0.02000    0.02000
                         0.02000    0.02000    0.02000    0.02000    0.02000    0.02000
                         0.02000    0.02000    0.02000    0.02000    0.02000    0.02000
                         0.02000    0.02000    0.02000    0.02000    0.02000    0.02000
                         0.02000    0.02000    0.02000    0.02000    0.02000    0.02000
                         0.02000    0.02000    0.02000    0.02000    0.02000    0.02000
                         0.02000    0.02000    0.02000    0.02000    0.02000    0.02000
                         0.02000    0.02000
              wtk55      0.01389    0.01389    0.01389    0.01389    0.01389    0.01389
                         0.01389    0.01389    0.01389    0.01389    0.01389    0.01389
                         0.01389    0.01389    0.01389    0.01389    0.01389    0.01389
                         0.01389    0.01389    0.01389    0.01389    0.01389    0.01389
                         0.01389    0.01389    0.01389    0.01389    0.01389    0.01389
                         0.01389    0.01389    0.01389    0.01389    0.01389    0.01389
                         0.01389    0.01389    0.01389    0.01389    0.01389    0.01389
                         0.01389    0.01389    0.01389    0.01389    0.01389    0.01389
                         0.01389    0.01389
              wtk56      0.01020    0.01020    0.01020    0.01020    0.01020    0.01020
                         0.01020    0.01020    0.01020    0.01020    0.01020    0.01020
                         0.01020    0.01020    0.01020    0.01020    0.01020    0.01020
                         0.01020    0.01020    0.01020    0.01020    0.01020    0.01020
                         0.01020    0.01020    0.01020    0.01020    0.01020    0.01020
                         0.01020    0.01020    0.01020    0.01020    0.01020    0.01020
                         0.01020    0.01020    0.01020    0.01020    0.01020    0.01020
                         0.01020    0.01020    0.01020    0.01020    0.01020    0.01020
                         0.01020    0.01020
              wtk61      0.12500    0.12500    0.12500    0.12500    0.12500    0.12500
                         0.12500    0.12500
              wtk62      0.05556    0.05556    0.05556    0.05556    0.05556    0.05556
                         0.05556    0.05556    0.05556    0.05556    0.05556    0.05556
                         0.05556    0.05556    0.05556    0.05556    0.05556    0.05556
              wtk63      0.03125    0.03125    0.03125    0.03125    0.03125    0.03125
                         0.03125    0.03125    0.03125    0.03125    0.03125    0.03125
                         0.03125    0.03125    0.03125    0.03125    0.03125    0.03125
                         0.03125    0.03125    0.03125    0.03125    0.03125    0.03125
                         0.03125    0.03125    0.03125    0.03125    0.03125    0.03125
                         0.03125    0.03125
              wtk64      0.02000    0.02000    0.02000    0.02000    0.02000    0.02000
                         0.02000    0.02000    0.02000    0.02000    0.02000    0.02000
                         0.02000    0.02000    0.02000    0.02000    0.02000    0.02000
                         0.02000    0.02000    0.02000    0.02000    0.02000    0.02000
                         0.02000    0.02000    0.02000    0.02000    0.02000    0.02000
                         0.02000    0.02000    0.02000    0.02000    0.02000    0.02000
                         0.02000    0.02000    0.02000    0.02000    0.02000    0.02000
                         0.02000    0.02000    0.02000    0.02000    0.02000    0.02000
                         0.02000    0.02000
              wtk65      0.01389    0.01389    0.01389    0.01389    0.01389    0.01389
                         0.01389    0.01389    0.01389    0.01389    0.01389    0.01389
                         0.01389    0.01389    0.01389    0.01389    0.01389    0.01389
                         0.01389    0.01389    0.01389    0.01389    0.01389    0.01389
                         0.01389    0.01389    0.01389    0.01389    0.01389    0.01389
                         0.01389    0.01389    0.01389    0.01389    0.01389    0.01389
                         0.01389    0.01389    0.01389    0.01389    0.01389    0.01389
                         0.01389    0.01389    0.01389    0.01389    0.01389    0.01389
                         0.01389    0.01389
              wtk66      0.01020    0.01020    0.01020    0.01020    0.01020    0.01020
                         0.01020    0.01020    0.01020    0.01020    0.01020    0.01020
                         0.01020    0.01020    0.01020    0.01020    0.01020    0.01020
                         0.01020    0.01020    0.01020    0.01020    0.01020    0.01020
                         0.01020    0.01020    0.01020    0.01020    0.01020    0.01020
                         0.01020    0.01020    0.01020    0.01020    0.01020    0.01020
                         0.01020    0.01020    0.01020    0.01020    0.01020    0.01020
                         0.01020    0.01020    0.01020    0.01020    0.01020    0.01020
                         0.01020    0.01020
                       outvars : Printing only first  50 k-points.
           xangst      1.5801000000E+00  9.1227116034E-01  0.0000000000E+00
                       1.5801000000E+00 -9.1227116034E-01 -1.5850000000E+00
                       1.5801000000E+00 -9.1227116034E-01  1.5850000000E+00
            xcart      2.9859562626E+00  1.7239426520E+00  0.0000000000E+00
                       2.9859562626E+00 -1.7239426520E+00 -2.9952159206E+00
                       2.9859562626E+00 -1.7239426520E+00  2.9952159206E+00
             xred      3.3333333333E-01  6.6666666667E-01  0.0000000000E+00
                       6.6666666667E-01  3.3333333333E-01 -7.9250000000E-02
                       6.6666666667E-01  3.3333333333E-01  7.9250000000E-02
            znucl       42.00000   16.00000
 
================================================================================


- Timing analysis has been suppressed with timopt=0



================================================================================

 Suggested references for the acknowledgment of ABINIT usage.

 The users of ABINIT have little formal obligations with respect to the ABINIT group
 (those specified in the GNU General Public License, http://www.gnu.org/copyleft/gpl.txt).
 However, it is common practice in the scientific literature,
 to acknowledge the efforts of people that have made the research possible.
 In this spirit, please find below suggested citations of work written by ABINIT developers,
 corresponding to implementations inside of ABINIT that you have used in the present run.
 Note also that it will be of great value to readers of publications presenting these results,
 to read papers enabling them to understand the theoretical formalism and details
 of the ABINIT implementation.
 For information on why they are suggested, see also https://docs.abinit.org/theory/acknowledgments.
-
- [1] The Abinit project: Impact, environment and recent developments.
- Computer Phys. Comm. 248, 107042 (2020).
- X.Gonze, B. Amadon, G. Antonius, F.Arnardi, L.Baguet, J.-M.Beuken,
- J.Bieder, F.Bottin, J.Bouchet, E.Bousquet, N.Brouwer, F.Bruneval,
- G.Brunin, T.Cavignac, J.-B. Charraud, Wei Chen, M.Cote, S.Cottenier,
- J.Denier, G.Geneste, Ph.Ghosez, M.Giantomassi, Y.Gillet, O.Gingras,
- D.R.Hamann, G.Hautier, Xu He, N.Helbig, N.Holzwarth, Y.Jia, F.Jollet,
- W.Lafargue-Dit-Hauret, K.Lejaeghere, M.A.L.Marques, A.Martin, C.Martins,
- H.P.C. Miranda, F.Naccarato, K. Persson, G.Petretto, V.Planes, Y.Pouillon,
- S.Prokhorenko, F.Ricci, G.-M.Rignanese, A.H.Romero, M.M.Schmitt, M.Torrent,
- M.J.van Setten, B.Van Troeye, M.J.Verstraete, G.Zerah and J.W.Zwanzig
- Comment: the fifth generic paper describing the ABINIT project.
- Note that a version of this paper, that is not formatted for Computer Phys. Comm. 
- is available at https://www.abinit.org/sites/default/files/ABINIT20.pdf .
- The licence allows the authors to put it on the Web.
- DOI and bibtex: see https://docs.abinit.org/theory/bibliography/#gonze2020
-
- [2] Optimized norm-conserving Vanderbilt pseudopotentials.
- D.R. Hamann, Phys. Rev. B 88, 085117 (2013).
- Comment: Some pseudopotential generated using the ONCVPSP code were used.
- DOI and bibtex: see https://docs.abinit.org/theory/bibliography/#hamann2013
-
- [3] ABINIT: Overview, and focus on selected capabilities
- J. Chem. Phys. 152, 124102 (2020).
- A. Romero, D.C. Allan, B. Amadon, G. Antonius, T. Applencourt, L.Baguet,
- J.Bieder, F.Bottin, J.Bouchet, E.Bousquet, F.Bruneval,
- G.Brunin, D.Caliste, M.Cote,
- J.Denier, C. Dreyer, Ph.Ghosez, M.Giantomassi, Y.Gillet, O.Gingras,
- D.R.Hamann, G.Hautier, F.Jollet, G. Jomard,
- A.Martin, 
- H.P.C. Miranda, F.Naccarato, G.Petretto, N.A. Pike, V.Planes,
- S.Prokhorenko, T. Rangel, F.Ricci, G.-M.Rignanese, M.Royo, M.Stengel, M.Torrent,
- M.J.van Setten, B.Van Troeye, M.J.Verstraete, J.Wiktor, J.W.Zwanziger, and X.Gonze.
- Comment: a global overview of ABINIT, with focus on selected capabilities .
- Note that a version of this paper, that is not formatted for J. Chem. Phys 
- is available at https://www.abinit.org/sites/default/files/ABINIT20_JPC.pdf .
- The licence allows the authors to put it on the Web.
- DOI and bibtex: see https://docs.abinit.org/theory/bibliography/#romero2020
-
- [4] Recent developments in the ABINIT software package.
- Computer Phys. Comm. 205, 106 (2016).
- X.Gonze, F.Jollet, F.Abreu Araujo, D.Adams, B.Amadon, T.Applencourt,
- C.Audouze, J.-M.Beuken, J.Bieder, A.Bokhanchuk, E.Bousquet, F.Bruneval
- D.Caliste, M.Cote, F.Dahm, F.Da Pieve, M.Delaveau, M.Di Gennaro,
- B.Dorado, C.Espejo, G.Geneste, L.Genovese, A.Gerossier, M.Giantomassi,
- Y.Gillet, D.R.Hamann, L.He, G.Jomard, J.Laflamme Janssen, S.Le Roux,
- A.Levitt, A.Lherbier, F.Liu, I.Lukacevic, A.Martin, C.Martins,
- M.J.T.Oliveira, S.Ponce, Y.Pouillon, T.Rangel, G.-M.Rignanese,
- A.H.Romero, B.Rousseau, O.Rubel, A.A.Shukri, M.Stankovski, M.Torrent,
- M.J.Van Setten, B.Van Troeye, M.J.Verstraete, D.Waroquier, J.Wiktor,
- B.Xu, A.Zhou, J.W.Zwanziger.
- Comment: the fourth generic paper describing the ABINIT project.
- Note that a version of this paper, that is not formatted for Computer Phys. Comm. 
- is available at https://www.abinit.org/sites/default/files/ABINIT16.pdf .
- The licence allows the authors to put it on the Web.
- DOI and bibtex: see https://docs.abinit.org/theory/bibliography/#gonze2016
-
- And optionally:
-
- [5] ABINIT: First-principles approach of materials and nanosystem properties.
- Computer Phys. Comm. 180, 2582-2615 (2009).
- X. Gonze, B. Amadon, P.-M. Anglade, J.-M. Beuken, F. Bottin, P. Boulanger, F. Bruneval,
- D. Caliste, R. Caracas, M. Cote, T. Deutsch, L. Genovese, Ph. Ghosez, M. Giantomassi
- S. Goedecker, D.R. Hamann, P. Hermet, F. Jollet, G. Jomard, S. Leroux, M. Mancini, S. Mazevet,
- M.J.T. Oliveira, G. Onida, Y. Pouillon, T. Rangel, G.-M. Rignanese, D. Sangalli, R. Shaltaf,
- M. Torrent, M.J. Verstraete, G. Zerah, J.W. Zwanziger
- Comment: the third generic paper describing the ABINIT project.
- Note that a version of this paper, that is not formatted for Computer Phys. Comm. 
- is available at https://www.abinit.org/sites/default/files/ABINIT_CPC_v10.pdf .
- The licence allows the authors to put it on the Web.
- DOI and bibtex: see https://docs.abinit.org/theory/bibliography/#gonze2009
-
- Proc.   0 individual time (sec): cpu=      12988.3  wall=      13049.1
 
================================================================================
 
 Calculation completed.
.Delivered  29 WARNINGs and   0 COMMENTs to log file.
+Overall time at end (sec) : cpu=    1041035.0  wall=    1043934.3
