
.Version 9.10.3 of ABINIT 
.(MPI version, prepared for a x86_64_linux_intel2021.6 computer) 

.Copyright (C) 1998-2022 ABINIT group . 
 ABINIT comes with ABSOLUTELY NO WARRANTY.
 It is free software, and you are welcome to redistribute it
 under certain conditions (GNU General Public License,
 see ~abinit/COPYING or http://www.gnu.org/copyleft/gpl.txt).

 ABINIT is a project of the Universite Catholique de Louvain,
 Corning Inc. and other collaborators, see ~abinit/doc/developers/contributors.txt .
 Please read https://docs.abinit.org/theory/acknowledgments for suggested
 acknowledgments of the ABINIT effort.
 For more information, see https://www.abinit.org .

.Starting date : Thu  8 May 2025.
- ( at 15h34 )
  
- input  file    -> mos2_exp_relx_simple.abi
- output file    -> mos2_exp_relx_simple.abo
- root for input  files -> mos2_exp_relx_simplei
- root for output files -> mos2_exp_relx_simpleo
 
 
 DATASET   11 : space group P1 (#  1); Bravais aP (primitive triclinic)
================================================================================
 Values of the parameters that define the memory need for DATASET 11.
     intxc =       0    ionmov =       0      iscf =       7    lmnmax =       6
     lnmax =       6     mgfft =     108  mpssoang =       3    mqgrid =    5381
     natom =       3  nloc_mem =       1    nspden =       1   nspinor =       1
    nsppol =       1      nsym =       1    n1xccc =    2501    ntypat =       2
    occopt =       1   xclevel =       2
-    mband =          14        mffmem =           1         mkmem =           1
       mpw =        1770          nfft =       34992          nkpt =           8
================================================================================
P This job should need less than                      12.678 Mbytes of memory.
  Rough estimation (10% accuracy) of disk space for files :
_ WF disk file :      3.027 Mbytes ; DEN or POT disk file :      0.269 Mbytes.
================================================================================
 
 
 DATASET   12 : space group P1 (#  1); Bravais aP (primitive triclinic)
================================================================================
 Values of the parameters that define the memory need for DATASET 12.
     intxc =       0    ionmov =       0      iscf =       7    lmnmax =       6
     lnmax =       6     mgfft =     108  mpssoang =       3    mqgrid =    5381
     natom =       3  nloc_mem =       1    nspden =       1   nspinor =       1
    nsppol =       1      nsym =       1    n1xccc =    2501    ntypat =       2
    occopt =       1   xclevel =       2
-    mband =          14        mffmem =           1         mkmem =           1
       mpw =        1776          nfft =       34992          nkpt =          18
================================================================================
P This job should need less than                      12.706 Mbytes of memory.
  Rough estimation (10% accuracy) of disk space for files :
_ WF disk file :      6.831 Mbytes ; DEN or POT disk file :      0.269 Mbytes.
================================================================================
 
 
 DATASET   21 : space group P1 (#  1); Bravais aP (primitive triclinic)
================================================================================
 Values of the parameters that define the memory need for DATASET 21.
     intxc =       0    ionmov =       0      iscf =       7    lmnmax =       6
     lnmax =       6     mgfft =     160  mpssoang =       3    mqgrid =    7609
     natom =       3  nloc_mem =       1    nspden =       1   nspinor =       1
    nsppol =       1      nsym =       1    n1xccc =    2501    ntypat =       2
    occopt =       1   xclevel =       2
-    mband =          14        mffmem =           1         mkmem =           1
       mpw =        5030          nfft =      116640          nkpt =           8
================================================================================
P This job should need less than                      38.098 Mbytes of memory.
  Rough estimation (10% accuracy) of disk space for files :
_ WF disk file :      8.598 Mbytes ; DEN or POT disk file :      0.892 Mbytes.
================================================================================
 
 
 DATASET   22 : space group P1 (#  1); Bravais aP (primitive triclinic)
================================================================================
 Values of the parameters that define the memory need for DATASET 22.
     intxc =       0    ionmov =       0      iscf =       7    lmnmax =       6
     lnmax =       6     mgfft =     160  mpssoang =       3    mqgrid =    7609
     natom =       3  nloc_mem =       1    nspden =       1   nspinor =       1
    nsppol =       1      nsym =       1    n1xccc =    2501    ntypat =       2
    occopt =       1   xclevel =       2
-    mband =          14        mffmem =           1         mkmem =           1
       mpw =        5036          nfft =      116640          nkpt =          18
================================================================================
P This job should need less than                      38.103 Mbytes of memory.
  Rough estimation (10% accuracy) of disk space for files :
_ WF disk file :     19.367 Mbytes ; DEN or POT disk file :      0.892 Mbytes.
================================================================================
 
--------------------------------------------------------------------------------
------------- Echo of variables that govern the present computation ------------
--------------------------------------------------------------------------------
-
- outvars: echo of selected default values                                      
-   iomode0 =  0 , fftalg0 =512 , wfoptalg0 =  0
-
- outvars: echo of global parameters not present in the input file              
-  max_nthreads =    0
-
 -outvars: echo values of preprocessed input variables --------
            acell      5.9719125251E+00  5.9719125251E+00  3.7794522658E+01 Bohr
              amu      9.59400000E+01  3.20660000E+01
      chksymbreak           0
             ecut11    1.00000000E+01 Hartree
             ecut12    1.00000000E+01 Hartree
             ecut21    2.00000000E+01 Hartree
             ecut22    2.00000000E+01 Hartree
-          fftalg         512
              ixc          11
           jdtset       11   12   21   22
              kpt11    1.25000000E-01  1.25000000E-01  5.00000000E-01
                       3.75000000E-01  1.25000000E-01  5.00000000E-01
                      -3.75000000E-01  1.25000000E-01  5.00000000E-01
                      -1.25000000E-01  1.25000000E-01  5.00000000E-01
                       1.25000000E-01  3.75000000E-01  5.00000000E-01
                       3.75000000E-01  3.75000000E-01  5.00000000E-01
                      -3.75000000E-01  3.75000000E-01  5.00000000E-01
                      -1.25000000E-01  3.75000000E-01  5.00000000E-01
              kpt12    8.33333333E-02  8.33333333E-02  5.00000000E-01
                       2.50000000E-01  8.33333333E-02  5.00000000E-01
                       4.16666667E-01  8.33333333E-02  5.00000000E-01
                      -4.16666667E-01  8.33333333E-02  5.00000000E-01
                      -2.50000000E-01  8.33333333E-02  5.00000000E-01
                      -8.33333333E-02  8.33333333E-02  5.00000000E-01
                       8.33333333E-02  2.50000000E-01  5.00000000E-01
                       2.50000000E-01  2.50000000E-01  5.00000000E-01
                       4.16666667E-01  2.50000000E-01  5.00000000E-01
                      -4.16666667E-01  2.50000000E-01  5.00000000E-01
                      -2.50000000E-01  2.50000000E-01  5.00000000E-01
                      -8.33333333E-02  2.50000000E-01  5.00000000E-01
                       8.33333333E-02  4.16666667E-01  5.00000000E-01
                       2.50000000E-01  4.16666667E-01  5.00000000E-01
                       4.16666667E-01  4.16666667E-01  5.00000000E-01
                      -4.16666667E-01  4.16666667E-01  5.00000000E-01
                      -2.50000000E-01  4.16666667E-01  5.00000000E-01
                      -8.33333333E-02  4.16666667E-01  5.00000000E-01
              kpt21    1.25000000E-01  1.25000000E-01  5.00000000E-01
                       3.75000000E-01  1.25000000E-01  5.00000000E-01
                      -3.75000000E-01  1.25000000E-01  5.00000000E-01
                      -1.25000000E-01  1.25000000E-01  5.00000000E-01
                       1.25000000E-01  3.75000000E-01  5.00000000E-01
                       3.75000000E-01  3.75000000E-01  5.00000000E-01
                      -3.75000000E-01  3.75000000E-01  5.00000000E-01
                      -1.25000000E-01  3.75000000E-01  5.00000000E-01
              kpt22    8.33333333E-02  8.33333333E-02  5.00000000E-01
                       2.50000000E-01  8.33333333E-02  5.00000000E-01
                       4.16666667E-01  8.33333333E-02  5.00000000E-01
                      -4.16666667E-01  8.33333333E-02  5.00000000E-01
                      -2.50000000E-01  8.33333333E-02  5.00000000E-01
                      -8.33333333E-02  8.33333333E-02  5.00000000E-01
                       8.33333333E-02  2.50000000E-01  5.00000000E-01
                       2.50000000E-01  2.50000000E-01  5.00000000E-01
                       4.16666667E-01  2.50000000E-01  5.00000000E-01
                      -4.16666667E-01  2.50000000E-01  5.00000000E-01
                      -2.50000000E-01  2.50000000E-01  5.00000000E-01
                      -8.33333333E-02  2.50000000E-01  5.00000000E-01
                       8.33333333E-02  4.16666667E-01  5.00000000E-01
                       2.50000000E-01  4.16666667E-01  5.00000000E-01
                       4.16666667E-01  4.16666667E-01  5.00000000E-01
                      -4.16666667E-01  4.16666667E-01  5.00000000E-01
                      -2.50000000E-01  4.16666667E-01  5.00000000E-01
                      -8.33333333E-02  4.16666667E-01  5.00000000E-01
         kptrlatt11      4    0    0      0    4    0      0    0    1
         kptrlatt12      6    0    0      0    6    0      0    0    1
         kptrlatt21      4    0    0      0    4    0      0    0    1
         kptrlatt22      6    0    0      0    6    0      0    0    1
          kptrlen11    2.38876501E+01
          kptrlen12    3.58314752E+01
          kptrlen21    2.38876501E+01
          kptrlen22    3.58314752E+01
P           mkmem           1
            natom           3
            nband11        14
            nband12        14
            nband21        14
            nband22        14
           ndtset           4
            ngfft11        18      18     108
            ngfft12        18      18     108
            ngfft21        27      27     160
            ngfft22        27      27     160
             nkpt11         8
             nkpt12        18
             nkpt21         8
             nkpt22        18
            nstep          20
             nsym           1
           ntypat           2
              occ11    2.000000  2.000000  2.000000  2.000000  2.000000  2.000000
                       2.000000  2.000000  2.000000  2.000000  2.000000  2.000000
                       2.000000  0.000000
              occ12    2.000000  2.000000  2.000000  2.000000  2.000000  2.000000
                       2.000000  2.000000  2.000000  2.000000  2.000000  2.000000
                       2.000000  0.000000
              occ21    2.000000  2.000000  2.000000  2.000000  2.000000  2.000000
                       2.000000  2.000000  2.000000  2.000000  2.000000  2.000000
                       2.000000  0.000000
              occ22    2.000000  2.000000  2.000000  2.000000  2.000000  2.000000
                       2.000000  2.000000  2.000000  2.000000  2.000000  2.000000
                       2.000000  0.000000
            rprim      5.0000000000E-01 -8.6602540378E-01  0.0000000000E+00
                       5.0000000000E-01  8.6602540378E-01  0.0000000000E+00
                       0.0000000000E+00  0.0000000000E+00  1.0000000000E+00
           shiftk      5.00000000E-01  5.00000000E-01  5.00000000E-01
          spgroup           1
           toldfe      1.00000000E-10 Hartree
            typat      1  2  2
              wtk11      0.12500    0.12500    0.12500    0.12500    0.12500    0.12500
                         0.12500    0.12500
              wtk12      0.05556    0.05556    0.05556    0.05556    0.05556    0.05556
                         0.05556    0.05556    0.05556    0.05556    0.05556    0.05556
                         0.05556    0.05556    0.05556    0.05556    0.05556    0.05556
              wtk21      0.12500    0.12500    0.12500    0.12500    0.12500    0.12500
                         0.12500    0.12500
              wtk22      0.05556    0.05556    0.05556    0.05556    0.05556    0.05556
                         0.05556    0.05556    0.05556    0.05556    0.05556    0.05556
                         0.05556    0.05556    0.05556    0.05556    0.05556    0.05556
           xangst      1.5801000000E+00  9.1227116034E-01  0.0000000000E+00
                       1.5801000000E+00 -9.1227116034E-01 -1.5850000000E+00
                       1.5801000000E+00 -9.1227116034E-01  1.5850000000E+00
            xcart      2.9859562626E+00  1.7239426520E+00  0.0000000000E+00
                       2.9859562626E+00 -1.7239426520E+00 -2.9952159206E+00
                       2.9859562626E+00 -1.7239426520E+00  2.9952159206E+00
             xred      3.3333333333E-01  6.6666666667E-01  0.0000000000E+00
                       6.6666666667E-01  3.3333333333E-01 -7.9250000000E-02
                       6.6666666667E-01  3.3333333333E-01  7.9250000000E-02
            znucl       42.00000   16.00000
 
================================================================================
 
 chkinp: Checking input parameters for consistency, jdtset=  11.
 
 chkinp: Checking input parameters for consistency, jdtset=  12.
 
 chkinp: Checking input parameters for consistency, jdtset=  21.
 
 chkinp: Checking input parameters for consistency, jdtset=  22.
 
================================================================================
== DATASET 11 ==================================================================
-   mpi_nproc: 80, omp_nthreads: -1 (-1 if OMP is not activated)
-    --> not optimal distribution: autoparal keyword recommended in input file <--
 

--- !DatasetInfo
iteration_state: {dtset: 11, }
dimensions: {natom: 3, nkpt: 8, mband: 14, nsppol: 1, nspinor: 1, nspden: 1, mpw: 1770, }
cutoff_energies: {ecut:  10.0, pawecutdg:  -1.0, }
electrons: {nelect:   2.60000000E+01, charge:   0.00000000E+00, occopt:   1.00000000E+00, tsmear:   1.00000000E-02, }
meta: {optdriver: 0, ionmov: 0, optcell: 0, iscf: 7, paral_kgb: 0, }
...

 Exchange-correlation functional for the present dataset will be:
  GGA: Perdew-Burke-Ernzerhof functional - ixc=11
 Citation for XC functional:
  J.P.Perdew, K.Burke, M.Ernzerhof, PRL 77, 3865 (1996)
 
 Real(R)+Recip(G) space primitive vectors, cartesian coordinates (Bohr,Bohr^-1):
 R(1)=  2.9859563 -5.1718280  0.0000000  G(1)=  0.1674505 -0.0966776  0.0000000
 R(2)=  2.9859563  5.1718280  0.0000000  G(2)=  0.1674505  0.0966776  0.0000000
 R(3)=  0.0000000  0.0000000 37.7945227  G(3)=  0.0000000  0.0000000  0.0264589
 Unit cell volume ucvol=  1.1673104E+03 bohr^3
 Angles (23,13,12)=  9.00000000E+01  9.00000000E+01  1.20000000E+02 degrees
 
 getcut: wavevector=  0.0000  0.0000  0.0000  ngfft=  18  18 108
         ecut(hartree)=     10.000   => boxcut(ratio)=   2.00738
 
--- Pseudopotential description ------------------------------------------------
- pspini: atom type   1  psp file is ../persudo/Mo.psp8
- pspatm: opening atomic psp file    ../persudo/Mo.psp8
- Mo    ONCVPSP-3.2.3.1  r_core=   1.45541   1.45541   1.35488
- 42.00000  14.00000    170510                znucl, zion, pspdat
    8   11    2    4       600   0.00000      pspcod,pspxc,lmax,lloc,mmax,r2well
    5.99000000000000    3.00000000000000    0.00000000000000   rchrg,fchrg,qchrg
     nproj     2     2     2
     extension_switch     1
  pspatm : epsatm=   15.95693586
         --- l  ekb(1:nproj) -->
             0   13.833287    1.350687
             1    8.015347    1.134034
             2    2.765699    0.969071
 pspatm: atomic psp has been read  and splines computed
 
- pspini: atom type   2  psp file is ../persudo/S.psp8
- pspatm: opening atomic psp file    ../persudo/S.psp8
- S     ONCVPSP-4.0.1  r_core=   1.45687   1.45687   1.45687
- 16.00000   6.00000    220131                znucl, zion, pspdat
    8   11    2    4       600   0.00000      pspcod,pspxc,lmax,lloc,mmax,r2well
    5.99000000000000    6.00000000000000    0.00000000000000   rchrg,fchrg,qchrg
     nproj     2     2     2
     extension_switch     1
  pspatm : epsatm=    9.04179351
         --- l  ekb(1:nproj) -->
             0    6.774234    0.542270
             1    3.022426    0.737017
             2   -5.033160   -1.531047
 pspatm: atomic psp has been read  and splines computed
 
   8.85053595E+02                                ecore*ucvol(ha*bohr**3)
--------------------------------------------------------------------------------
 
_setup2: Arith. and geom. avg. npw (full set) are    1763.500    1763.489
 
================================================================================

--- !BeginCycle
iteration_state: {dtset: 11, }
solver: {iscf: 7, nstep: 20, nline: 4, wfoptalg: 0, }
tolerances: {toldfe: 1.00E-10, }
...
 
     iter   Etot(hartree)      deltaE(h)  residm     vres2
 ETOT  1  -90.799455790004    -9.080E+01 6.214E-02 1.859E+03
 ETOT  2  -88.784501070341     2.015E+00 3.500E-02 6.899E+03
 ETOT  3  -91.570013487980    -2.786E+00 1.598E-02 7.034E+01
 ETOT  4  -91.607226896913    -3.721E-02 2.803E-03 3.521E+00
 ETOT  5  -91.609233336412    -2.006E-03 7.732E-04 1.693E+00
 ETOT  6  -91.609306330285    -7.299E-05 6.352E-04 1.406E+00
 ETOT  7  -91.609360222982    -5.389E-05 3.550E-04 7.550E-01
 ETOT  8  -91.609391666492    -3.144E-05 2.714E-04 4.094E-01
 ETOT  9  -91.609417055964    -2.539E-05 1.797E-04 1.016E-01
 ETOT 10  -91.609419995876    -2.940E-06 1.116E-04 4.500E-02
 ETOT 11  -91.609420456164    -4.603E-07 8.911E-05 2.414E-02
 ETOT 12  -91.609420787856    -3.317E-07 5.011E-05 1.352E-02
 ETOT 13  -91.609420763265     2.459E-08 4.259E-05 7.566E-03
 ETOT 14  -91.609420820112    -5.685E-08 2.323E-05 6.196E-03
 ETOT 15  -91.609420858470    -3.836E-08 2.879E-05 4.142E-03
 ETOT 16  -91.609420856853     1.617E-09 1.649E-05 3.658E-03
 ETOT 17  -91.609420852180     4.673E-09 3.579E-05 3.360E-03
 ETOT 18  -91.609420854305    -2.125E-09 2.038E-05 3.004E-03
 ETOT 19  -91.609420853657     6.485E-10 4.383E-05 2.585E-03
 ETOT 20  -91.609420857817    -4.160E-09 2.476E-05 8.105E-04
 
 Cartesian components of stress tensor (hartree/bohr^3)
  sigma(1 1)=  1.00941321E-03  sigma(3 2)= -3.88899868E-11
  sigma(2 2)=  9.91498796E-04  sigma(3 1)=  1.03457060E-10
  sigma(3 3)=  1.01779201E-03  sigma(2 1)=  1.54093376E-10
 
 
 scprqt:  WARNING -
  nstep=   20 was not enough SCF cycles to converge;
  maximum energy difference=  4.160E-09 exceeds toldfe=  1.000E-10
 

--- !ResultsGS
iteration_state: {dtset: 11, }
comment   : Summary of ground state results
lattice_vectors:
- [  2.9859563,  -5.1718280,   0.0000000, ]
- [  2.9859563,   5.1718280,   0.0000000, ]
- [  0.0000000,   0.0000000,  37.7945227, ]
lattice_lengths: [   5.97191,    5.97191,   37.79452, ]
lattice_angles: [ 90.000,  90.000, 120.000, ] # degrees, (23, 13, 12)
lattice_volume:   1.1673104E+03
convergence: {deltae: -4.160E-09, res2:  8.105E-04, residm:  2.476E-05, diffor: null, }
etotal    :  -9.16094209E+01
entropy   :   0.00000000E+00
fermie    :  -6.74066301E-02
cartesian_stress_tensor: # hartree/bohr^3
- [  1.00941321E-03,   1.54093376E-10,   1.03457060E-10, ]
- [  1.54093376E-10,   9.91498796E-04,  -3.88899868E-11, ]
- [  1.03457060E-10,  -3.88899868E-11,   1.01779201E-03, ]
pressure_GPa:  -2.9604E+01
xred      :
- [  3.3333E-01,   6.6667E-01,   0.0000E+00, Mo]
- [  6.6667E-01,   3.3333E-01,  -7.9250E-02,  S]
- [  6.6667E-01,   3.3333E-01,   7.9250E-02,  S]
cartesian_forces: # hartree/bohr
- [ -2.20955168E-08,   1.40053836E-03,   5.22199066E-07, ]
- [  1.52380418E-08,  -7.00237136E-04,  -1.88826949E-03, ]
- [  6.85747497E-09,  -7.00301225E-04,   1.88774729E-03, ]
force_length_stats: {min:   1.40053846E-03, max:   2.01392495E-03, mean:   1.80930701E-03, }
...

 Integrated electronic density in atomic spheres:
 ------------------------------------------------
 Atom  Sphere_radius  Integrated_density
    1        2.00000         10.37093524
    2        2.00000          3.96121225
    3        2.00000          3.96121044
================================================================================
 
 ----iterations are completed or convergence reached----
 
 Mean square residual over all n,k,spin=   27.533E-08; max=  24.759E-06
 reduced coordinates (array xred) for    3 atoms
       0.333333333333      0.666666666667      0.000000000000
       0.666666666667      0.333333333333     -0.079250000000
       0.666666666667      0.333333333333      0.079250000000
 rms dE/dt=  3.3897E-02; max dE/dt=  7.1369E-02; dE/dt below (all hartree)
    1       0.007245090732     -0.007244903102     -0.000016964662
    2      -0.003619870188      0.003619834865      0.071369015636
    3      -0.003620176620      0.003620191345     -0.071343736167
 
 cartesian coordinates (angstrom) at end:
    1      1.58010000000000     0.91227116034185     0.00000000000000
    2      1.58010000000000    -0.91227116034185    -1.58500000000000
    3      1.58010000000000    -0.91227116034185     1.58500000000000
 
 cartesian forces (hartree/bohr) at end:
    1     -0.00000002209552     0.00140053836076     0.00000052219907
    2      0.00000001523804    -0.00070023713597    -0.00188826949027
    3      0.00000000685747    -0.00070030122479     0.00188774729120
 frms,max,avg= 1.0578497E-03 1.8882695E-03  -9.323E-09  3.197E-07 -7.333E-08 h/b
 
 cartesian forces (eV/Angstrom) at end:
    1     -0.00000113619706     0.07201857209035     0.00002685255336
    2      0.00000078357155    -0.03600763825554    -0.09709871305247
    3      0.00000035262551    -0.03601093383481     0.09707186049911
 frms,max,avg= 5.4396813E-02 9.7098713E-02  -4.794E-07  1.644E-05 -3.771E-06 e/A
 length scales=  5.971912525145  5.971912525145 37.794522657713 bohr
              =  3.160200000000  3.160200000000 20.000000000000 angstroms
 prteigrs : about to open file mos2_exp_relx_simpleo_DS11_EIG
 Fermi (or HOMO) energy (hartree) =  -0.06741   Average Vxc (hartree)=  -0.15083
 Eigenvalues (hartree) for nkpt=   8  k points:
 kpt#   1, nband= 14, wtk=  0.12500, kpt=  0.1250  0.1250  0.5000 (reduced coord)
  -2.20905   -1.41945   -1.41743   -1.41415   -0.54918   -0.52127   -0.24666   -0.19160
  -0.18030   -0.16012   -0.13505   -0.09974   -0.08319    0.01442
 prteigrs : prtvol=0 or 1, do not print more k-points.
 

--- !EnergyTerms
iteration_state     : {dtset: 11, }
comment             : Components of total free energy in Hartree
kinetic             :  2.87265987208082E+01
hartree             :  2.80499686322069E+02
xc                  : -1.64642416615106E+01
Ewald energy        :  2.05366925133136E+02
psp_core            :  7.58198985105847E-01
local_psp           : -6.02687686822952E+02
non_local_psp       :  1.21910984655278E+01
total_energy        : -9.16094208578167E+01
total_energy_eV     : -2.49281911615434E+03
band_energy         : -1.73675364125224E+01
...

 
 Cartesian components of stress tensor (hartree/bohr^3)
  sigma(1 1)=  1.00941321E-03  sigma(3 2)= -3.88899868E-11
  sigma(2 2)=  9.91498796E-04  sigma(3 1)=  1.03457060E-10
  sigma(3 3)=  1.01779201E-03  sigma(2 1)=  1.54093376E-10
 
-Cartesian components of stress tensor (GPa)         [Pressure= -2.9604E+01 GPa]
- sigma(1 1)=  2.96979570E+01  sigma(3 2)= -1.14418272E-06
- sigma(2 2)=  2.91708968E+01  sigma(3 1)=  3.04381129E-06
- sigma(3 3)=  2.99444697E+01  sigma(2 1)=  4.53358287E-06
 
================================================================================
== DATASET 12 ==================================================================
-   mpi_nproc: 80, omp_nthreads: -1 (-1 if OMP is not activated)
-    --> not optimal distribution: autoparal keyword recommended in input file <--
 

--- !DatasetInfo
iteration_state: {dtset: 12, }
dimensions: {natom: 3, nkpt: 18, mband: 14, nsppol: 1, nspinor: 1, nspden: 1, mpw: 1776, }
cutoff_energies: {ecut:  10.0, pawecutdg:  -1.0, }
electrons: {nelect:   2.60000000E+01, charge:   0.00000000E+00, occopt:   1.00000000E+00, tsmear:   1.00000000E-02, }
meta: {optdriver: 0, ionmov: 0, optcell: 0, iscf: 7, paral_kgb: 0, }
...

 Exchange-correlation functional for the present dataset will be:
  GGA: Perdew-Burke-Ernzerhof functional - ixc=11
 Citation for XC functional:
  J.P.Perdew, K.Burke, M.Ernzerhof, PRL 77, 3865 (1996)
 
 Real(R)+Recip(G) space primitive vectors, cartesian coordinates (Bohr,Bohr^-1):
 R(1)=  2.9859563 -5.1718280  0.0000000  G(1)=  0.1674505 -0.0966776  0.0000000
 R(2)=  2.9859563  5.1718280  0.0000000  G(2)=  0.1674505  0.0966776  0.0000000
 R(3)=  0.0000000  0.0000000 37.7945227  G(3)=  0.0000000  0.0000000  0.0264589
 Unit cell volume ucvol=  1.1673104E+03 bohr^3
 Angles (23,13,12)=  9.00000000E+01  9.00000000E+01  1.20000000E+02 degrees
 
 getcut: wavevector=  0.0000  0.0000  0.0000  ngfft=  18  18 108
         ecut(hartree)=     10.000   => boxcut(ratio)=   2.00738
--------------------------------------------------------------------------------
 
_setup2: Arith. and geom. avg. npw (full set) are    1760.333    1760.314
 
================================================================================

--- !BeginCycle
iteration_state: {dtset: 12, }
solver: {iscf: 7, nstep: 20, nline: 4, wfoptalg: 0, }
tolerances: {toldfe: 1.00E-10, }
...
 
     iter   Etot(hartree)      deltaE(h)  residm     vres2
 ETOT  1  -90.768336873171    -9.077E+01 5.576E-02 2.072E+03
 ETOT  2  -88.748283528034     2.020E+00 2.687E-02 7.046E+03
 ETOT  3  -91.574169393156    -2.826E+00 1.919E-02 5.719E+01
 ETOT  4  -91.605904722001    -3.174E-02 2.630E-03 6.560E+00
 ETOT  5  -91.607612386503    -1.708E-03 1.664E-03 2.926E+00
 ETOT  6  -91.607765536817    -1.532E-04 7.591E-04 1.803E+00
 ETOT  7  -91.607827981324    -6.244E-05 7.475E-04 9.080E-01
 ETOT  8  -91.607851019440    -2.304E-05 4.913E-04 5.938E-01
 ETOT  9  -91.607887906078    -3.689E-05 5.322E-04 1.284E-01
 ETOT 10  -91.607891801220    -3.895E-06 3.533E-04 5.389E-02
 ETOT 11  -91.607892170814    -3.696E-07 3.605E-04 2.931E-02
 ETOT 12  -91.607892960907    -7.901E-07 2.205E-04 1.224E-02
 ETOT 13  -91.607892890402     7.051E-08 2.155E-04 6.965E-03
 ETOT 14  -91.607893082723    -1.923E-07 1.235E-04 3.000E-03
 ETOT 15  -91.607893089517    -6.794E-09 1.188E-04 1.182E-03
 ETOT 16  -91.607893089754    -2.367E-10 6.484E-05 8.983E-04
 ETOT 17  -91.607893091226    -1.472E-09 6.260E-05 8.930E-04
 ETOT 18  -91.607893092124    -8.976E-10 3.298E-05 8.012E-04
 ETOT 19  -91.607893092350    -2.261E-10 3.218E-05 7.136E-04
 ETOT 20  -91.607893092306     4.376E-11 2.854E-05 6.534E-04
 
 Cartesian components of stress tensor (hartree/bohr^3)
  sigma(1 1)=  9.99995672E-04  sigma(3 2)= -1.63568751E-11
  sigma(2 2)=  1.00661043E-03  sigma(3 1)=  4.81907819E-12
  sigma(3 3)=  1.02359994E-03  sigma(2 1)= -1.65115190E-11
 

--- !ResultsGS
iteration_state: {dtset: 12, }
comment   : Summary of ground state results
lattice_vectors:
- [  2.9859563,  -5.1718280,   0.0000000, ]
- [  2.9859563,   5.1718280,   0.0000000, ]
- [  0.0000000,   0.0000000,  37.7945227, ]
lattice_lengths: [   5.97191,    5.97191,   37.79452, ]
lattice_angles: [ 90.000,  90.000, 120.000, ] # degrees, (23, 13, 12)
lattice_volume:   1.1673104E+03
convergence: {deltae:  4.376E-11, res2:  6.534E-04, residm:  2.854E-05, diffor: null, }
etotal    :  -9.16078931E+01
entropy   :   0.00000000E+00
fermie    :  -6.80315582E-02
cartesian_stress_tensor: # hartree/bohr^3
- [  9.99995672E-04,  -1.65115190E-11,   4.81907819E-12, ]
- [ -1.65115190E-11,   1.00661043E-03,  -1.63568751E-11, ]
- [  4.81907819E-12,  -1.63568751E-11,   1.02359994E-03, ]
pressure_GPa:  -2.9717E+01
xred      :
- [  3.3333E-01,   6.6667E-01,   0.0000E+00, Mo]
- [  6.6667E-01,   3.3333E-01,  -7.9250E-02,  S]
- [  6.6667E-01,   3.3333E-01,   7.9250E-02,  S]
cartesian_forces: # hartree/bohr
- [ -6.52594785E-09,  -8.28338934E-05,  -5.02202714E-06, ]
- [  6.65794793E-09,   4.14090098E-05,  -1.44536249E-03, ]
- [ -1.32000086E-10,   4.14248836E-05,   1.45038451E-03, ]
force_length_stats: {min:   8.29859910E-05, max:   1.45097597E-03, mean:   9.93305833E-04, }
...

 Integrated electronic density in atomic spheres:
 ------------------------------------------------
 Atom  Sphere_radius  Integrated_density
    1        2.00000         10.37115707
    2        2.00000          3.96086774
    3        2.00000          3.96087184
================================================================================
 
 ----iterations are completed or convergence reached----
 
 Mean square residual over all n,k,spin=   27.523E-08; max=  28.542E-06
 reduced coordinates (array xred) for    3 atoms
       0.333333333333      0.666666666667      0.000000000000
       0.666666666667      0.333333333333     -0.079250000000
       0.666666666667      0.333333333333      0.079250000000
 rms dE/dt=  2.5797E-02; max dE/dt=  5.4613E-02; dE/dt below (all hartree)
    1      -0.000428133753      0.000428171198      0.000176516082
    2       0.000214389801     -0.000214431089      0.054613496211
    3       0.000214492172     -0.000214492911     -0.054829879403
 
 cartesian coordinates (angstrom) at end:
    1      1.58010000000000     0.91227116034185     0.00000000000000
    2      1.58010000000000    -0.91227116034185    -1.58500000000000
    3      1.58010000000000    -0.91227116034185     1.58500000000000
 
 cartesian forces (hartree/bohr) at end:
    1     -0.00000000652595    -0.00008283389340    -0.00000502202714
    2      0.00000000665795     0.00004140900985    -0.00144536248659
    3     -0.00000000013200     0.00004142488356     0.00145038451373
 frms,max,avg= 6.8337442E-04 1.4503845E-03   2.557E-10  4.837E-08  3.516E-07 h/b
 
 cartesian forces (eV/Angstrom) at end:
    1     -0.00000033557770    -0.00425948970103    -0.00025824299700
    2      0.00000034236542     0.00212933672103    -0.07432352112101
    3     -0.00000000678772     0.00213015298001     0.07458176411801
 frms,max,avg= 3.5140523E-02 7.4581764E-02   1.315E-08  2.487E-06  1.808E-05 e/A
 length scales=  5.971912525145  5.971912525145 37.794522657713 bohr
              =  3.160200000000  3.160200000000 20.000000000000 angstroms
 prteigrs : about to open file mos2_exp_relx_simpleo_DS12_EIG
 Fermi (or HOMO) energy (hartree) =  -0.06803   Average Vxc (hartree)=  -0.15072
 Eigenvalues (hartree) for nkpt=  18  k points:
 kpt#   1, nband= 14, wtk=  0.05556, kpt=  0.0833  0.0833  0.5000 (reduced coord)
  -2.21003   -1.41999   -1.41500   -1.41321   -0.56128   -0.52693   -0.25442   -0.17686
  -0.16344   -0.14570   -0.13522   -0.10063   -0.07220    0.02686
 prteigrs : prtvol=0 or 1, do not print more k-points.
 

--- !EnergyTerms
iteration_state     : {dtset: 12, }
comment             : Components of total free energy in Hartree
kinetic             :  2.87220438889831E+01
hartree             :  2.80502738070175E+02
xc                  : -1.64635688239033E+01
Ewald energy        :  2.05366925133136E+02
psp_core            :  7.58198985105847E-01
local_psp           : -6.02685072706910E+02
non_local_psp       :  1.21908423611075E+01
total_energy        : -9.16078930923061E+01
total_energy_eV     : -2.49277754354059E+03
band_energy         : -1.73638280870778E+01
...

 
 Cartesian components of stress tensor (hartree/bohr^3)
  sigma(1 1)=  9.99995672E-04  sigma(3 2)= -1.63568751E-11
  sigma(2 2)=  1.00661043E-03  sigma(3 1)=  4.81907819E-12
  sigma(3 3)=  1.02359994E-03  sigma(2 1)= -1.65115190E-11
 
-Cartesian components of stress tensor (GPa)         [Pressure= -2.9717E+01 GPa]
- sigma(1 1)=  2.94208835E+01  sigma(3 2)= -4.81235798E-07
- sigma(2 2)=  2.96154965E+01  sigma(3 1)=  1.41782151E-07
- sigma(3 3)=  3.01153450E+01  sigma(2 1)= -4.85785580E-07
 
================================================================================
== DATASET 21 ==================================================================
-   mpi_nproc: 80, omp_nthreads: -1 (-1 if OMP is not activated)
-    --> not optimal distribution: autoparal keyword recommended in input file <--
 

--- !DatasetInfo
iteration_state: {dtset: 21, }
dimensions: {natom: 3, nkpt: 8, mband: 14, nsppol: 1, nspinor: 1, nspden: 1, mpw: 5030, }
cutoff_energies: {ecut:  20.0, pawecutdg:  -1.0, }
electrons: {nelect:   2.60000000E+01, charge:   0.00000000E+00, occopt:   1.00000000E+00, tsmear:   1.00000000E-02, }
meta: {optdriver: 0, ionmov: 0, optcell: 0, iscf: 7, paral_kgb: 0, }
...

 Exchange-correlation functional for the present dataset will be:
  GGA: Perdew-Burke-Ernzerhof functional - ixc=11
 Citation for XC functional:
  J.P.Perdew, K.Burke, M.Ernzerhof, PRL 77, 3865 (1996)
 
 Real(R)+Recip(G) space primitive vectors, cartesian coordinates (Bohr,Bohr^-1):
 R(1)=  2.9859563 -5.1718280  0.0000000  G(1)=  0.1674505 -0.0966776  0.0000000
 R(2)=  2.9859563  5.1718280  0.0000000  G(2)=  0.1674505  0.0966776  0.0000000
 R(3)=  0.0000000  0.0000000 37.7945227  G(3)=  0.0000000  0.0000000  0.0264589
 Unit cell volume ucvol=  1.1673104E+03 bohr^3
 Angles (23,13,12)=  9.00000000E+01  9.00000000E+01  1.20000000E+02 degrees
 
 getcut: wavevector=  0.0000  0.0000  0.0000  ngfft=  27  27 160
         ecut(hartree)=     20.000   => boxcut(ratio)=   2.10286
 
--- Pseudopotential description ------------------------------------------------
- pspini: atom type   1  psp file is ../persudo/Mo.psp8
- pspatm: opening atomic psp file    ../persudo/Mo.psp8
- Mo    ONCVPSP-3.2.3.1  r_core=   1.45541   1.45541   1.35488
- 42.00000  14.00000    170510                znucl, zion, pspdat
    8   11    2    4       600   0.00000      pspcod,pspxc,lmax,lloc,mmax,r2well
    5.99000000000000    3.00000000000000    0.00000000000000   rchrg,fchrg,qchrg
     nproj     2     2     2
     extension_switch     1
  pspatm : epsatm=   15.95693586
         --- l  ekb(1:nproj) -->
             0   13.833287    1.350687
             1    8.015347    1.134034
             2    2.765699    0.969071
 pspatm: atomic psp has been read  and splines computed
 
- pspini: atom type   2  psp file is ../persudo/S.psp8
- pspatm: opening atomic psp file    ../persudo/S.psp8
- S     ONCVPSP-4.0.1  r_core=   1.45687   1.45687   1.45687
- 16.00000   6.00000    220131                znucl, zion, pspdat
    8   11    2    4       600   0.00000      pspcod,pspxc,lmax,lloc,mmax,r2well
    5.99000000000000    6.00000000000000    0.00000000000000   rchrg,fchrg,qchrg
     nproj     2     2     2
     extension_switch     1
  pspatm : epsatm=    9.04179351
         --- l  ekb(1:nproj) -->
             0    6.774234    0.542270
             1    3.022426    0.737017
             2   -5.033160   -1.531047
 pspatm: atomic psp has been read  and splines computed
 
--------------------------------------------------------------------------------
 
_setup2: Arith. and geom. avg. npw (full set) are    4984.250    4984.175
 
================================================================================

--- !BeginCycle
iteration_state: {dtset: 21, }
solver: {iscf: 7, nstep: 20, nline: 4, wfoptalg: 0, }
tolerances: {toldfe: 1.00E-10, }
...
 
     iter   Etot(hartree)      deltaE(h)  residm     vres2
 ETOT  1  -91.678484863312    -9.168E+01 8.060E-02 3.196E+03
 ETOT  2  -89.175648799146     2.503E+00 4.885E-02 2.559E+04
 ETOT  3  -92.278415089720    -3.103E+00 2.207E-02 3.361E+02
 ETOT  4  -92.296325826347    -1.791E-02 1.728E-03 2.264E+02
 ETOT  5  -92.301293284148    -4.967E-03 4.313E-04 1.421E+02
 ETOT  6  -92.302669610209    -1.376E-03 3.523E-04 1.108E+02
 ETOT  7  -92.303526842117    -8.572E-04 1.957E-04 8.842E+01
 ETOT  8  -92.304269540848    -7.427E-04 1.963E-04 6.489E+01
 ETOT  9  -92.304898936729    -6.294E-04 1.102E-04 3.998E+01
 ETOT 10  -92.305035107806    -1.362E-04 1.080E-04 3.222E+01
 ETOT 11  -92.305126156983    -9.105E-05 5.743E-05 2.438E+01
 ETOT 12  -92.305151127262    -2.497E-05 5.722E-05 1.971E+01
 ETOT 13  -92.305165130982    -1.400E-05 3.660E-05 1.741E+01
 ETOT 14  -92.305179233945    -1.410E-05 5.226E-05 1.356E+01
 ETOT 15  -92.305183878095    -4.644E-06 4.542E-05 1.161E+01
 ETOT 16  -92.305188410093    -4.532E-06 6.255E-05 9.317E+00
 ETOT 17  -92.305194597689    -6.188E-06 5.497E-05 6.145E+00
 ETOT 18  -92.305194110633     4.871E-07 7.470E-05 5.267E+00
 ETOT 19  -92.305196401813    -2.291E-06 6.580E-05 3.278E+00
 ETOT 20  -92.305196847245    -4.454E-07 8.783E-05 2.471E+00
 
 Cartesian components of stress tensor (hartree/bohr^3)
  sigma(1 1)=  2.22777678E-04  sigma(3 2)=  1.47518107E-10
  sigma(2 2)=  2.15397342E-04  sigma(3 1)= -2.68339541E-10
  sigma(3 3)=  2.53476298E-04  sigma(2 1)= -1.30670891E-09
 
 
 scprqt:  WARNING -
  nstep=   20 was not enough SCF cycles to converge;
  maximum energy difference=  4.454E-07 exceeds toldfe=  1.000E-10
 

--- !ResultsGS
iteration_state: {dtset: 21, }
comment   : Summary of ground state results
lattice_vectors:
- [  2.9859563,  -5.1718280,   0.0000000, ]
- [  2.9859563,   5.1718280,   0.0000000, ]
- [  0.0000000,   0.0000000,  37.7945227, ]
lattice_lengths: [   5.97191,    5.97191,   37.79452, ]
lattice_angles: [ 90.000,  90.000, 120.000, ] # degrees, (23, 13, 12)
lattice_volume:   1.1673104E+03
convergence: {deltae: -4.454E-07, res2:  2.471E+00, residm:  8.783E-05, diffor: null, }
etotal    :  -9.23051968E+01
entropy   :   0.00000000E+00
fermie    :  -7.06691214E-02
cartesian_stress_tensor: # hartree/bohr^3
- [  2.22777678E-04,  -1.30670891E-09,  -2.68339541E-10, ]
- [ -1.30670891E-09,   2.15397342E-04,   1.47518107E-10, ]
- [ -2.68339541E-10,   1.47518107E-10,   2.53476298E-04, ]
pressure_GPa:  -6.7830E+00
xred      :
- [  3.3333E-01,   6.6667E-01,   0.0000E+00, Mo]
- [  6.6667E-01,   3.3333E-01,  -7.9250E-02,  S]
- [  6.6667E-01,   3.3333E-01,   7.9250E-02,  S]
cartesian_forces: # hartree/bohr
- [ -1.36401831E-07,   7.65501826E-04,   3.35021972E-06, ]
- [  4.52569683E-08,  -3.82771231E-04,   4.49227390E-03, ]
- [  9.11448632E-08,  -3.82730596E-04,  -4.49562412E-03, ]
force_length_stats: {min:   7.65509169E-04, max:   4.51188641E-03, mean:   3.26198243E-03, }
...

 Integrated electronic density in atomic spheres:
 ------------------------------------------------
 Atom  Sphere_radius  Integrated_density
    1        2.00000         10.51269733
    2        2.00000          3.91817572
    3        2.00000          3.91816968
================================================================================
 
 ----iterations are completed or convergence reached----
 
 Mean square residual over all n,k,spin=   86.007E-08; max=  87.834E-06
 reduced coordinates (array xred) for    3 atoms
       0.333333333333      0.666666666667      0.000000000000
       0.666666666667      0.333333333333     -0.079250000000
       0.666666666667      0.333333333333      0.079250000000
 rms dE/dt=  8.0099E-02; max dE/dt=  1.6991E-01; dE/dt below (all hartree)
    1       0.003961614718     -0.003961334666     -0.000122073894
    2      -0.001977598404      0.001976793606     -0.169778801650
    3      -0.001977525265      0.001976446429      0.169914513727
 
 cartesian coordinates (angstrom) at end:
    1      1.58010000000000     0.91227116034185     0.00000000000000
    2      1.58010000000000    -0.91227116034185    -1.58500000000000
    3      1.58010000000000    -0.91227116034185     1.58500000000000
 
 cartesian forces (hartree/bohr) at end:
    1     -0.00000013640183     0.00076550182622     0.00000335021972
    2      0.00000004525697    -0.00038277123069     0.00449227390034
    3      0.00000009114486    -0.00038273059554    -0.00449562412006
 frms,max,avg= 2.1413952E-03 4.4956241E-03   8.951E-08  4.700E-07 -1.203E-07 h/b
 
 cartesian forces (eV/Angstrom) at end:
    1     -0.00000701406360     0.03936368328180     0.00017227521027
    2      0.00000232720668    -0.01968288641254     0.23100199238005
    3      0.00000468685691    -0.01968079686926    -0.23117426759033
 frms,max,avg= 1.1011496E-01 2.3117427E-01   4.603E-06  2.417E-05 -6.185E-06 e/A
 length scales=  5.971912525145  5.971912525145 37.794522657713 bohr
              =  3.160200000000  3.160200000000 20.000000000000 angstroms
 prteigrs : about to open file mos2_exp_relx_simpleo_DS21_EIG
 Fermi (or HOMO) energy (hartree) =  -0.07067   Average Vxc (hartree)=  -0.14577
 Eigenvalues (hartree) for nkpt=   8  k points:
 kpt#   1, nband= 14, wtk=  0.12500, kpt=  0.1250  0.1250  0.5000 (reduced coord)
  -2.30019   -1.35046   -1.34802   -1.34416   -0.55968   -0.52780   -0.24880   -0.19739
  -0.18226   -0.16191   -0.13626   -0.10074   -0.08753    0.00810
 prteigrs : prtvol=0 or 1, do not print more k-points.
 

--- !EnergyTerms
iteration_state     : {dtset: 21, }
comment             : Components of total free energy in Hartree
kinetic             :  2.98174375887255E+01
hartree             :  2.81553010107413E+02
xc                  : -1.65939079406449E+01
Ewald energy        :  2.05366925133136E+02
psp_core            :  7.58198985105847E-01
local_psp           : -6.04878371026287E+02
non_local_psp       :  1.16715103053083E+01
total_energy        : -9.23051968472445E+01
total_energy_eV     : -2.51175214368323E+03
band_energy         : -1.71924041934383E+01
...

 
 Cartesian components of stress tensor (hartree/bohr^3)
  sigma(1 1)=  2.22777678E-04  sigma(3 2)=  1.47518107E-10
  sigma(2 2)=  2.15397342E-04  sigma(3 1)= -2.68339541E-10
  sigma(3 3)=  2.53476298E-04  sigma(2 1)= -1.30670891E-09
 
-Cartesian components of stress tensor (GPa)         [Pressure= -6.7830E+00 GPa]
- sigma(1 1)=  6.55434448E+00  sigma(3 2)=  4.34013181E-06
- sigma(2 2)=  6.33720753E+00  sigma(3 1)= -7.89482055E-06
- sigma(3 3)=  7.45752889E+00  sigma(2 1)= -3.84446969E-05
 
================================================================================
== DATASET 22 ==================================================================
-   mpi_nproc: 80, omp_nthreads: -1 (-1 if OMP is not activated)
-    --> not optimal distribution: autoparal keyword recommended in input file <--
 

--- !DatasetInfo
iteration_state: {dtset: 22, }
dimensions: {natom: 3, nkpt: 18, mband: 14, nsppol: 1, nspinor: 1, nspden: 1, mpw: 5036, }
cutoff_energies: {ecut:  20.0, pawecutdg:  -1.0, }
electrons: {nelect:   2.60000000E+01, charge:   0.00000000E+00, occopt:   1.00000000E+00, tsmear:   1.00000000E-02, }
meta: {optdriver: 0, ionmov: 0, optcell: 0, iscf: 7, paral_kgb: 0, }
...

 Exchange-correlation functional for the present dataset will be:
  GGA: Perdew-Burke-Ernzerhof functional - ixc=11
 Citation for XC functional:
  J.P.Perdew, K.Burke, M.Ernzerhof, PRL 77, 3865 (1996)
 
 Real(R)+Recip(G) space primitive vectors, cartesian coordinates (Bohr,Bohr^-1):
 R(1)=  2.9859563 -5.1718280  0.0000000  G(1)=  0.1674505 -0.0966776  0.0000000
 R(2)=  2.9859563  5.1718280  0.0000000  G(2)=  0.1674505  0.0966776  0.0000000
 R(3)=  0.0000000  0.0000000 37.7945227  G(3)=  0.0000000  0.0000000  0.0264589
 Unit cell volume ucvol=  1.1673104E+03 bohr^3
 Angles (23,13,12)=  9.00000000E+01  9.00000000E+01  1.20000000E+02 degrees
 
 getcut: wavevector=  0.0000  0.0000  0.0000  ngfft=  27  27 160
         ecut(hartree)=     20.000   => boxcut(ratio)=   2.10286
--------------------------------------------------------------------------------
 
_setup2: Arith. and geom. avg. npw (full set) are    4986.778    4986.682
 
================================================================================

--- !BeginCycle
iteration_state: {dtset: 22, }
solver: {iscf: 7, nstep: 20, nline: 4, wfoptalg: 0, }
tolerances: {toldfe: 1.00E-10, }
...
 
     iter   Etot(hartree)      deltaE(h)  residm     vres2
 ETOT  1  -91.702412803492    -9.170E+01 8.274E-02 3.197E+03
 ETOT  2  -89.262370869744     2.440E+00 3.432E-02 2.526E+04
 ETOT  3  -92.273578788820    -3.011E+00 3.147E-02 4.090E+02
 ETOT  4  -92.293262890734    -1.968E-02 3.043E-02 2.897E+02
 ETOT  5  -92.299953247910    -6.690E-03 1.248E-03 1.846E+02
 ETOT  6  -92.301980931702    -2.028E-03 1.192E-03 1.436E+02
 ETOT  7  -92.303278333376    -1.297E-03 5.842E-04 1.144E+02
 ETOT  8  -92.304488143978    -1.210E-03 7.722E-04 8.222E+01
 ETOT  9  -92.305573800289    -1.086E-03 4.045E-04 4.727E+01
 ETOT 10  -92.305820488966    -2.467E-04 5.466E-04 3.625E+01
 ETOT 11  -92.305962150287    -1.417E-04 2.565E-04 2.621E+01
 ETOT 12  -92.305941212739     2.094E-05 3.448E-04 2.615E+01
 ETOT 13  -92.306010432293    -6.922E-05 1.548E-04 1.831E+01
 ETOT 14  -92.306011646633    -1.214E-06 2.079E-04 1.766E+01
 ETOT 15  -92.306006600429     5.046E-06 1.311E-04 1.713E+01
 ETOT 16  -92.306013324163    -6.724E-06 1.923E-04 1.586E+01
 ETOT 17  -92.306017707630    -4.383E-06 1.788E-04 1.380E+01
 ETOT 18  -92.306021667390    -3.960E-06 2.519E-04 1.203E+01
 ETOT 19  -92.306036625145    -1.496E-05 2.259E-04 8.191E+00
 ETOT 20  -92.306035146030     1.479E-06 3.101E-04 8.367E+00
 
 Cartesian components of stress tensor (hartree/bohr^3)
  sigma(1 1)=  2.20163816E-04  sigma(3 2)=  1.26076398E-09
  sigma(2 2)=  2.19667045E-04  sigma(3 1)=  4.27359200E-10
  sigma(3 3)=  2.48446836E-04  sigma(2 1)=  7.11789859E-09
 
 
 scprqt:  WARNING -
  nstep=   20 was not enough SCF cycles to converge;
  maximum energy difference=  1.479E-06 exceeds toldfe=  1.000E-10
 

--- !ResultsGS
iteration_state: {dtset: 22, }
comment   : Summary of ground state results
lattice_vectors:
- [  2.9859563,  -5.1718280,   0.0000000, ]
- [  2.9859563,   5.1718280,   0.0000000, ]
- [  0.0000000,   0.0000000,  37.7945227, ]
lattice_lengths: [   5.97191,    5.97191,   37.79452, ]
lattice_angles: [ 90.000,  90.000, 120.000, ] # degrees, (23, 13, 12)
lattice_volume:   1.1673104E+03
convergence: {deltae:  1.479E-06, res2:  8.367E+00, residm:  3.101E-04, diffor: null, }
etotal    :  -9.23060351E+01
entropy   :   0.00000000E+00
fermie    :  -7.65300473E-02
cartesian_stress_tensor: # hartree/bohr^3
- [  2.20163816E-04,   7.11789859E-09,   4.27359200E-10, ]
- [  7.11789859E-09,   2.19667045E-04,   1.26076398E-09, ]
- [  4.27359200E-10,   1.26076398E-09,   2.48446836E-04, ]
pressure_GPa:  -6.7499E+00
xred      :
- [  3.3333E-01,   6.6667E-01,   0.0000E+00, Mo]
- [  6.6667E-01,   3.3333E-01,  -7.9250E-02,  S]
- [  6.6667E-01,   3.3333E-01,   7.9250E-02,  S]
cartesian_forces: # hartree/bohr
- [  4.41306300E-07,   5.73752689E-05,  -5.12119589E-07, ]
- [ -1.97520766E-07,  -2.87412160E-05,   5.34359956E-03, ]
- [ -2.43785534E-07,  -2.86340529E-05,  -5.34308744E-03, ]
force_length_stats: {min:   5.73792514E-05, max:   5.34367686E-03, mean:   3.58140676E-03, }
...

 Integrated electronic density in atomic spheres:
 ------------------------------------------------
 Atom  Sphere_radius  Integrated_density
    1        2.00000         10.51435609
    2        2.00000          3.91783513
    3        2.00000          3.91782567
================================================================================
 
 ----iterations are completed or convergence reached----
 
 Mean square residual over all n,k,spin=   17.639E-07; max=  31.014E-05
 reduced coordinates (array xred) for    3 atoms
       0.333333333333      0.666666666667      0.000000000000
       0.666666666667      0.333333333333     -0.079250000000
       0.666666666667      0.333333333333      0.079250000000
 rms dE/dt=  9.5200E-02; max dE/dt=  2.0193E-01; dE/dt below (all hartree)
    1       0.000295581937     -0.000297835887      0.000012164682
    2      -0.000147890197      0.000149451267     -0.201965985346
    3      -0.000147197824      0.000149035182      0.201932248764
 
 cartesian coordinates (angstrom) at end:
    1      1.58010000000000     0.91227116034185     0.00000000000000
    2      1.58010000000000    -0.91227116034185    -1.58500000000000
    3      1.58010000000000    -0.91227116034185     1.58500000000000
 
 cartesian forces (hartree/bohr) at end:
    1      0.00000044130630     0.00005737526888    -0.00000051211959
    2     -0.00000019752077    -0.00002874121602     0.00534359956182
    3     -0.00000024378553    -0.00002863405286    -0.00534308744223
 frms,max,avg= 2.5189852E-03 5.3435996E-03  -6.388E-08 -5.048E-09  1.903E-07 h/b
 
 cartesian forces (eV/Angstrom) at end:
    1      0.00002269288047     0.00295035470193    -0.00002633424587
    2     -0.00001015692532    -0.00147793262616     0.27477891434168
    3     -0.00001253595515    -0.00147242207577    -0.27475258009580
 frms,max,avg= 1.2953142E-01 2.7477891E-01  -3.285E-06 -2.596E-07  9.783E-06 e/A
 length scales=  5.971912525145  5.971912525145 37.794522657713 bohr
              =  3.160200000000  3.160200000000 20.000000000000 angstroms
 prteigrs : about to open file mos2_exp_relx_simpleo_DS22_EIG
 Fermi (or HOMO) energy (hartree) =  -0.07653   Average Vxc (hartree)=  -0.14561
 Eigenvalues (hartree) for nkpt=  18  k points:
 kpt#   1, nband= 14, wtk=  0.05556, kpt=  0.0833  0.0833  0.5000 (reduced coord)
  -2.30425   -1.35484   -1.34932   -1.34704   -0.57665   -0.53752   -0.26365   -0.18432
  -0.16970   -0.15042   -0.14214   -0.10600   -0.08105    0.01624
 prteigrs : prtvol=0 or 1, do not print more k-points.
 

--- !EnergyTerms
iteration_state     : {dtset: 22, }
comment             : Components of total free energy in Hartree
kinetic             :  2.98202979232757E+01
hartree             :  2.81600972348048E+02
xc                  : -1.65947570665891E+01
Ewald energy        :  2.05366925133136E+02
psp_core            :  7.58198985105847E-01
local_psp           : -6.04929173261016E+02
non_local_psp       :  1.16715007920097E+01
total_energy        : -9.23060351460303E+01
total_energy_eV     : -2.51177495495328E+03
band_energy         : -1.72996149020565E+01
...

 
 Cartesian components of stress tensor (hartree/bohr^3)
  sigma(1 1)=  2.20163816E-04  sigma(3 2)=  1.26076398E-09
  sigma(2 2)=  2.19667045E-04  sigma(3 1)=  4.27359200E-10
  sigma(3 3)=  2.48446836E-04  sigma(2 1)=  7.11789859E-09
 
-Cartesian components of stress tensor (GPa)         [Pressure= -6.7499E+00 GPa]
- sigma(1 1)=  6.47744200E+00  sigma(3 2)=  3.70929505E-05
- sigma(2 2)=  6.46282650E+00  sigma(3 1)=  1.25733397E-05
- sigma(3 3)=  7.30955705E+00  sigma(2 1)=  2.09415771E-04
 
== END DATASET(S) ==============================================================
================================================================================
  
 -outvars: echo values of variables after computation  --------
            acell      5.9719125251E+00  5.9719125251E+00  3.7794522658E+01 Bohr
              amu      9.59400000E+01  3.20660000E+01
      chksymbreak           0
             ecut11    1.00000000E+01 Hartree
             ecut12    1.00000000E+01 Hartree
             ecut21    2.00000000E+01 Hartree
             ecut22    2.00000000E+01 Hartree
           etotal11   -9.1609420858E+01
           etotal12   -9.1607893092E+01
           etotal21   -9.2305196847E+01
           etotal22   -9.2306035146E+01
            fcart11   -2.2095516785E-08  1.4005383608E-03  5.2219906575E-07
                       1.5238041815E-08 -7.0023713597E-04 -1.8882694903E-03
                       6.8574749699E-09 -7.0030122479E-04  1.8877472912E-03
            fcart12   -6.5259478484E-09 -8.2833893403E-05 -5.0220271410E-06
                       6.6579479345E-09  4.1409009846E-05 -1.4453624866E-03
                      -1.3200008604E-10  4.1424883557E-05  1.4503845137E-03
            fcart21   -1.3640183146E-07  7.6550182622E-04  3.3502197224E-06
                       4.5256968287E-08 -3.8277123069E-04  4.4922739003E-03
                       9.1144863175E-08 -3.8273059554E-04 -4.4956241201E-03
            fcart22    4.4130630047E-07  5.7375268878E-05 -5.1211958910E-07
                      -1.9752076610E-07 -2.8741216015E-05  5.3435995618E-03
                      -2.4378553437E-07 -2.8634052863E-05 -5.3430874422E-03
-          fftalg         512
              ixc          11
           jdtset       11   12   21   22
              kpt11    1.25000000E-01  1.25000000E-01  5.00000000E-01
                       3.75000000E-01  1.25000000E-01  5.00000000E-01
                      -3.75000000E-01  1.25000000E-01  5.00000000E-01
                      -1.25000000E-01  1.25000000E-01  5.00000000E-01
                       1.25000000E-01  3.75000000E-01  5.00000000E-01
                       3.75000000E-01  3.75000000E-01  5.00000000E-01
                      -3.75000000E-01  3.75000000E-01  5.00000000E-01
                      -1.25000000E-01  3.75000000E-01  5.00000000E-01
              kpt12    8.33333333E-02  8.33333333E-02  5.00000000E-01
                       2.50000000E-01  8.33333333E-02  5.00000000E-01
                       4.16666667E-01  8.33333333E-02  5.00000000E-01
                      -4.16666667E-01  8.33333333E-02  5.00000000E-01
                      -2.50000000E-01  8.33333333E-02  5.00000000E-01
                      -8.33333333E-02  8.33333333E-02  5.00000000E-01
                       8.33333333E-02  2.50000000E-01  5.00000000E-01
                       2.50000000E-01  2.50000000E-01  5.00000000E-01
                       4.16666667E-01  2.50000000E-01  5.00000000E-01
                      -4.16666667E-01  2.50000000E-01  5.00000000E-01
                      -2.50000000E-01  2.50000000E-01  5.00000000E-01
                      -8.33333333E-02  2.50000000E-01  5.00000000E-01
                       8.33333333E-02  4.16666667E-01  5.00000000E-01
                       2.50000000E-01  4.16666667E-01  5.00000000E-01
                       4.16666667E-01  4.16666667E-01  5.00000000E-01
                      -4.16666667E-01  4.16666667E-01  5.00000000E-01
                      -2.50000000E-01  4.16666667E-01  5.00000000E-01
                      -8.33333333E-02  4.16666667E-01  5.00000000E-01
              kpt21    1.25000000E-01  1.25000000E-01  5.00000000E-01
                       3.75000000E-01  1.25000000E-01  5.00000000E-01
                      -3.75000000E-01  1.25000000E-01  5.00000000E-01
                      -1.25000000E-01  1.25000000E-01  5.00000000E-01
                       1.25000000E-01  3.75000000E-01  5.00000000E-01
                       3.75000000E-01  3.75000000E-01  5.00000000E-01
                      -3.75000000E-01  3.75000000E-01  5.00000000E-01
                      -1.25000000E-01  3.75000000E-01  5.00000000E-01
              kpt22    8.33333333E-02  8.33333333E-02  5.00000000E-01
                       2.50000000E-01  8.33333333E-02  5.00000000E-01
                       4.16666667E-01  8.33333333E-02  5.00000000E-01
                      -4.16666667E-01  8.33333333E-02  5.00000000E-01
                      -2.50000000E-01  8.33333333E-02  5.00000000E-01
                      -8.33333333E-02  8.33333333E-02  5.00000000E-01
                       8.33333333E-02  2.50000000E-01  5.00000000E-01
                       2.50000000E-01  2.50000000E-01  5.00000000E-01
                       4.16666667E-01  2.50000000E-01  5.00000000E-01
                      -4.16666667E-01  2.50000000E-01  5.00000000E-01
                      -2.50000000E-01  2.50000000E-01  5.00000000E-01
                      -8.33333333E-02  2.50000000E-01  5.00000000E-01
                       8.33333333E-02  4.16666667E-01  5.00000000E-01
                       2.50000000E-01  4.16666667E-01  5.00000000E-01
                       4.16666667E-01  4.16666667E-01  5.00000000E-01
                      -4.16666667E-01  4.16666667E-01  5.00000000E-01
                      -2.50000000E-01  4.16666667E-01  5.00000000E-01
                      -8.33333333E-02  4.16666667E-01  5.00000000E-01
         kptrlatt11      4    0    0      0    4    0      0    0    1
         kptrlatt12      6    0    0      0    6    0      0    0    1
         kptrlatt21      4    0    0      0    4    0      0    0    1
         kptrlatt22      6    0    0      0    6    0      0    0    1
          kptrlen11    2.38876501E+01
          kptrlen12    3.58314752E+01
          kptrlen21    2.38876501E+01
          kptrlen22    3.58314752E+01
P           mkmem           1
            natom           3
            nband11        14
            nband12        14
            nband21        14
            nband22        14
           ndtset           4
            ngfft11        18      18     108
            ngfft12        18      18     108
            ngfft21        27      27     160
            ngfft22        27      27     160
             nkpt11         8
             nkpt12        18
             nkpt21         8
             nkpt22        18
            nstep          20
             nsym           1
           ntypat           2
              occ11    2.000000  2.000000  2.000000  2.000000  2.000000  2.000000
                       2.000000  2.000000  2.000000  2.000000  2.000000  2.000000
                       2.000000  0.000000
              occ12    2.000000  2.000000  2.000000  2.000000  2.000000  2.000000
                       2.000000  2.000000  2.000000  2.000000  2.000000  2.000000
                       2.000000  0.000000
              occ21    2.000000  2.000000  2.000000  2.000000  2.000000  2.000000
                       2.000000  2.000000  2.000000  2.000000  2.000000  2.000000
                       2.000000  0.000000
              occ22    2.000000  2.000000  2.000000  2.000000  2.000000  2.000000
                       2.000000  2.000000  2.000000  2.000000  2.000000  2.000000
                       2.000000  0.000000
            rprim      5.0000000000E-01 -8.6602540378E-01  0.0000000000E+00
                       5.0000000000E-01  8.6602540378E-01  0.0000000000E+00
                       0.0000000000E+00  0.0000000000E+00  1.0000000000E+00
           shiftk      5.00000000E-01  5.00000000E-01  5.00000000E-01
          spgroup           1
           strten11    1.0094132102E-03  9.9149879588E-04  1.0177920109E-03
                      -3.8889986805E-11  1.0345706037E-10  1.5409337577E-10
           strten12    9.9999567240E-04  1.0066104345E-03  1.0235999429E-03
                      -1.6356875063E-11  4.8190781869E-12 -1.6511519029E-11
           strten21    2.2277767818E-04  2.1539734206E-04  2.5347629758E-04
                       1.4751810665E-10 -2.6833954138E-10 -1.3067089091E-09
           strten22    2.2016381574E-04  2.1966704495E-04  2.4844683627E-04
                       1.2607639756E-09  4.2735920040E-10  7.1178985857E-09
           toldfe      1.00000000E-10 Hartree
            typat      1  2  2
              wtk11      0.12500    0.12500    0.12500    0.12500    0.12500    0.12500
                         0.12500    0.12500
              wtk12      0.05556    0.05556    0.05556    0.05556    0.05556    0.05556
                         0.05556    0.05556    0.05556    0.05556    0.05556    0.05556
                         0.05556    0.05556    0.05556    0.05556    0.05556    0.05556
              wtk21      0.12500    0.12500    0.12500    0.12500    0.12500    0.12500
                         0.12500    0.12500
              wtk22      0.05556    0.05556    0.05556    0.05556    0.05556    0.05556
                         0.05556    0.05556    0.05556    0.05556    0.05556    0.05556
                         0.05556    0.05556    0.05556    0.05556    0.05556    0.05556
           xangst      1.5801000000E+00  9.1227116034E-01  0.0000000000E+00
                       1.5801000000E+00 -9.1227116034E-01 -1.5850000000E+00
                       1.5801000000E+00 -9.1227116034E-01  1.5850000000E+00
            xcart      2.9859562626E+00  1.7239426520E+00  0.0000000000E+00
                       2.9859562626E+00 -1.7239426520E+00 -2.9952159206E+00
                       2.9859562626E+00 -1.7239426520E+00  2.9952159206E+00
             xred      3.3333333333E-01  6.6666666667E-01  0.0000000000E+00
                       6.6666666667E-01  3.3333333333E-01 -7.9250000000E-02
                       6.6666666667E-01  3.3333333333E-01  7.9250000000E-02
            znucl       42.00000   16.00000
 
================================================================================


- Timing analysis has been suppressed with timopt=0



================================================================================

 Suggested references for the acknowledgment of ABINIT usage.

 The users of ABINIT have little formal obligations with respect to the ABINIT group
 (those specified in the GNU General Public License, http://www.gnu.org/copyleft/gpl.txt).
 However, it is common practice in the scientific literature,
 to acknowledge the efforts of people that have made the research possible.
 In this spirit, please find below suggested citations of work written by ABINIT developers,
 corresponding to implementations inside of ABINIT that you have used in the present run.
 Note also that it will be of great value to readers of publications presenting these results,
 to read papers enabling them to understand the theoretical formalism and details
 of the ABINIT implementation.
 For information on why they are suggested, see also https://docs.abinit.org/theory/acknowledgments.
-
- [1] The Abinit project: Impact, environment and recent developments.
- Computer Phys. Comm. 248, 107042 (2020).
- X.Gonze, B. Amadon, G. Antonius, F.Arnardi, L.Baguet, J.-M.Beuken,
- J.Bieder, F.Bottin, J.Bouchet, E.Bousquet, N.Brouwer, F.Bruneval,
- G.Brunin, T.Cavignac, J.-B. Charraud, Wei Chen, M.Cote, S.Cottenier,
- J.Denier, G.Geneste, Ph.Ghosez, M.Giantomassi, Y.Gillet, O.Gingras,
- D.R.Hamann, G.Hautier, Xu He, N.Helbig, N.Holzwarth, Y.Jia, F.Jollet,
- W.Lafargue-Dit-Hauret, K.Lejaeghere, M.A.L.Marques, A.Martin, C.Martins,
- H.P.C. Miranda, F.Naccarato, K. Persson, G.Petretto, V.Planes, Y.Pouillon,
- S.Prokhorenko, F.Ricci, G.-M.Rignanese, A.H.Romero, M.M.Schmitt, M.Torrent,
- M.J.van Setten, B.Van Troeye, M.J.Verstraete, G.Zerah and J.W.Zwanzig
- Comment: the fifth generic paper describing the ABINIT project.
- Note that a version of this paper, that is not formatted for Computer Phys. Comm. 
- is available at https://www.abinit.org/sites/default/files/ABINIT20.pdf .
- The licence allows the authors to put it on the Web.
- DOI and bibtex: see https://docs.abinit.org/theory/bibliography/#gonze2020
-
- [2] Optimized norm-conserving Vanderbilt pseudopotentials.
- D.R. Hamann, Phys. Rev. B 88, 085117 (2013).
- Comment: Some pseudopotential generated using the ONCVPSP code were used.
- DOI and bibtex: see https://docs.abinit.org/theory/bibliography/#hamann2013
-
- [3] ABINIT: Overview, and focus on selected capabilities
- J. Chem. Phys. 152, 124102 (2020).
- A. Romero, D.C. Allan, B. Amadon, G. Antonius, T. Applencourt, L.Baguet,
- J.Bieder, F.Bottin, J.Bouchet, E.Bousquet, F.Bruneval,
- G.Brunin, D.Caliste, M.Cote,
- J.Denier, C. Dreyer, Ph.Ghosez, M.Giantomassi, Y.Gillet, O.Gingras,
- D.R.Hamann, G.Hautier, F.Jollet, G. Jomard,
- A.Martin, 
- H.P.C. Miranda, F.Naccarato, G.Petretto, N.A. Pike, V.Planes,
- S.Prokhorenko, T. Rangel, F.Ricci, G.-M.Rignanese, M.Royo, M.Stengel, M.Torrent,
- M.J.van Setten, B.Van Troeye, M.J.Verstraete, J.Wiktor, J.W.Zwanziger, and X.Gonze.
- Comment: a global overview of ABINIT, with focus on selected capabilities .
- Note that a version of this paper, that is not formatted for J. Chem. Phys 
- is available at https://www.abinit.org/sites/default/files/ABINIT20_JPC.pdf .
- The licence allows the authors to put it on the Web.
- DOI and bibtex: see https://docs.abinit.org/theory/bibliography/#romero2020
-
- [4] Recent developments in the ABINIT software package.
- Computer Phys. Comm. 205, 106 (2016).
- X.Gonze, F.Jollet, F.Abreu Araujo, D.Adams, B.Amadon, T.Applencourt,
- C.Audouze, J.-M.Beuken, J.Bieder, A.Bokhanchuk, E.Bousquet, F.Bruneval
- D.Caliste, M.Cote, F.Dahm, F.Da Pieve, M.Delaveau, M.Di Gennaro,
- B.Dorado, C.Espejo, G.Geneste, L.Genovese, A.Gerossier, M.Giantomassi,
- Y.Gillet, D.R.Hamann, L.He, G.Jomard, J.Laflamme Janssen, S.Le Roux,
- A.Levitt, A.Lherbier, F.Liu, I.Lukacevic, A.Martin, C.Martins,
- M.J.T.Oliveira, S.Ponce, Y.Pouillon, T.Rangel, G.-M.Rignanese,
- A.H.Romero, B.Rousseau, O.Rubel, A.A.Shukri, M.Stankovski, M.Torrent,
- M.J.Van Setten, B.Van Troeye, M.J.Verstraete, D.Waroquier, J.Wiktor,
- B.Xu, A.Zhou, J.W.Zwanziger.
- Comment: the fourth generic paper describing the ABINIT project.
- Note that a version of this paper, that is not formatted for Computer Phys. Comm. 
- is available at https://www.abinit.org/sites/default/files/ABINIT16.pdf .
- The licence allows the authors to put it on the Web.
- DOI and bibtex: see https://docs.abinit.org/theory/bibliography/#gonze2016
-
- And optionally:
-
- [5] ABINIT: First-principles approach of materials and nanosystem properties.
- Computer Phys. Comm. 180, 2582-2615 (2009).
- X. Gonze, B. Amadon, P.-M. Anglade, J.-M. Beuken, F. Bottin, P. Boulanger, F. Bruneval,
- D. Caliste, R. Caracas, M. Cote, T. Deutsch, L. Genovese, Ph. Ghosez, M. Giantomassi
- S. Goedecker, D.R. Hamann, P. Hermet, F. Jollet, G. Jomard, S. Leroux, M. Mancini, S. Mazevet,
- M.J.T. Oliveira, G. Onida, Y. Pouillon, T. Rangel, G.-M. Rignanese, D. Sangalli, R. Shaltaf,
- M. Torrent, M.J. Verstraete, G. Zerah, J.W. Zwanziger
- Comment: the third generic paper describing the ABINIT project.
- Note that a version of this paper, that is not formatted for Computer Phys. Comm. 
- is available at https://www.abinit.org/sites/default/files/ABINIT_CPC_v10.pdf .
- The licence allows the authors to put it on the Web.
- DOI and bibtex: see https://docs.abinit.org/theory/bibliography/#gonze2009
-
- Proc.   0 individual time (sec): cpu=         35.7  wall=         41.6
 
================================================================================
 
 Calculation completed.
.Delivered   3 WARNINGs and   0 COMMENTs to log file.
+Overall time at end (sec) : cpu=       3212.5  wall=       3317.3
