
.Version 9.10.3 of ABINIT 
.(MPI version, prepared for a x86_64_linux_intel2021.6 computer) 

.Copyright (C) 1998-2022 ABINIT group . 
 ABINIT comes with ABSOLUTELY NO WARRANTY.
 It is free software, and you are welcome to redistribute it
 under certain conditions (GNU General Public License,
 see ~abinit/COPYING or http://www.gnu.org/copyleft/gpl.txt).

 ABINIT is a project of the Universite Catholique de Louvain,
 Corning Inc. and other collaborators, see ~abinit/doc/developers/contributors.txt .
 Please read https://docs.abinit.org/theory/acknowledgments for suggested
 acknowledgments of the ABINIT effort.
 For more information, see https://www.abinit.org .

.Starting date : Wed  7 May 2025.
- ( at 11h17 )
  
- input  file    -> mos2_1.abi
- output file    -> mos2_1.abo
- root for input  files -> mos2_1i
- root for output files -> mos2_1o
 
 
 DATASET    1 : space group P1 (#  1); Bravais aP (primitive triclinic)
================================================================================
 Values of the parameters that define the memory need for DATASET  1.
     intxc =       0    ionmov =       0      iscf =       7    lmnmax =       6
     lnmax =       6     mgfft =     192  mpssoang =       3    mqgrid =    9319
     natom =       3  nloc_mem =       1    nspden =       1   nspinor =       1
    nsppol =       1      nsym =       1    n1xccc =    2501    ntypat =       2
    occopt =       1   xclevel =       2
-    mband =          14        mffmem =           1         mkmem =          10
       mpw =        9186          nfft =      172800          nkpt =          10
================================================================================
P This job should need less than                      75.199 Mbytes of memory.
  Rough estimation (10% accuracy) of disk space for files :
_ WF disk file :     19.625 Mbytes ; DEN or POT disk file :      1.320 Mbytes.
================================================================================
 
 
 DATASET    2 : space group P1 (#  1); Bravais aP (primitive triclinic)
================================================================================
 Values of the parameters that define the memory need for DATASET  2.
     intxc =       0    ionmov =       0      iscf =      -2    lmnmax =       6
     lnmax =       6     mgfft =     192  mpssoang =       3    mqgrid =    9319
     natom =       3  nloc_mem =       1    nspden =       1   nspinor =       1
    nsppol =       1      nsym =       1    n1xccc =    2501    ntypat =       2
    occopt =       1   xclevel =       2
-    mband =           8        mffmem =           1         mkmem =          68
       mpw =        9256          nfft =      172800          nkpt =          68
================================================================================
P This job should need less than                     117.553 Mbytes of memory.
  Rough estimation (10% accuracy) of disk space for files :
_ WF disk file :     76.834 Mbytes ; DEN or POT disk file :      1.320 Mbytes.
================================================================================
 
--------------------------------------------------------------------------------
------------- Echo of variables that govern the present computation ------------
--------------------------------------------------------------------------------
-
- outvars: echo of selected default values                                      
-   iomode0 =  0 , fftalg0 =512 , wfoptalg0 =  0
-
- outvars: echo of global parameters not present in the input file              
-  max_nthreads =    0
-
 -outvars: echo values of preprocessed input variables --------
            acell      5.9719125251E+00  5.9719125251E+00  3.7794522658E+01 Bohr
              amu      9.59400000E+01  3.20660000E+01
      chksymbreak           0
             ecut      3.00000000E+01 Hartree
           enunit1          0
           enunit2          1
-          fftalg         512
           getden1          0
           getden2         -1
             iscf1          7
             iscf2         -2
           istwfk1       4    0    5    0    0    0    0    8    0    9
           istwfk2       2    0    0    0    0    0    0    0    0    0
                         0    0    0    0    0    0    0    3    0    0
                         0    0    0    0    0    0    0    0    0    0
                         0    0    0    0    0    0    0    0    0    0
                         0    0    0    0    0    0    0    0    0    0
                       outvar_i_n : Printing only first  50 k-points.
              ixc          11
           jdtset        1    2
              kpt1     0.00000000E+00  0.00000000E+00  5.00000000E-01
                       2.50000000E-01  0.00000000E+00  5.00000000E-01
                       5.00000000E-01  0.00000000E+00  5.00000000E-01
                       0.00000000E+00  2.50000000E-01  5.00000000E-01
                       2.50000000E-01  2.50000000E-01  5.00000000E-01
                       5.00000000E-01  2.50000000E-01  5.00000000E-01
                      -2.50000000E-01  2.50000000E-01  5.00000000E-01
                       0.00000000E+00  5.00000000E-01  5.00000000E-01
                       2.50000000E-01  5.00000000E-01  5.00000000E-01
                       5.00000000E-01  5.00000000E-01  5.00000000E-01
              kpt2     0.00000000E+00  0.00000000E+00  0.00000000E+00
                       2.94117647E-02  0.00000000E+00  0.00000000E+00
                       5.88235294E-02  0.00000000E+00  0.00000000E+00
                       8.82352941E-02  0.00000000E+00  0.00000000E+00
                       1.17647059E-01  0.00000000E+00  0.00000000E+00
                       1.47058824E-01  0.00000000E+00  0.00000000E+00
                       1.76470588E-01  0.00000000E+00  0.00000000E+00
                       2.05882353E-01  0.00000000E+00  0.00000000E+00
                       2.35294118E-01  0.00000000E+00  0.00000000E+00
                       2.64705882E-01  0.00000000E+00  0.00000000E+00
                       2.94117647E-01  0.00000000E+00  0.00000000E+00
                       3.23529412E-01  0.00000000E+00  0.00000000E+00
                       3.52941176E-01  0.00000000E+00  0.00000000E+00
                       3.82352941E-01  0.00000000E+00  0.00000000E+00
                       4.11764706E-01  0.00000000E+00  0.00000000E+00
                       4.41176471E-01  0.00000000E+00  0.00000000E+00
                       4.70588235E-01  0.00000000E+00  0.00000000E+00
                       5.00000000E-01  0.00000000E+00  0.00000000E+00
                       4.83333333E-01  3.33333333E-02  0.00000000E+00
                       4.66666667E-01  6.66666667E-02  0.00000000E+00
                       4.50000000E-01  1.00000000E-01  0.00000000E+00
                       4.33333333E-01  1.33333333E-01  0.00000000E+00
                       4.16666667E-01  1.66666667E-01  0.00000000E+00
                       4.00000000E-01  2.00000000E-01  0.00000000E+00
                       3.83333333E-01  2.33333333E-01  0.00000000E+00
                       3.66666667E-01  2.66666667E-01  0.00000000E+00
                       3.50000000E-01  3.00000000E-01  0.00000000E+00
                       3.33333333E-01  3.33333333E-01  0.00000000E+00
                       3.50000000E-01  3.50000000E-01  2.50000000E-02
                       3.66666667E-01  3.66666667E-01  5.00000000E-02
                       3.83333333E-01  3.83333333E-01  7.50000000E-02
                       4.00000000E-01  4.00000000E-01  1.00000000E-01
                       4.16666667E-01  4.16666667E-01  1.25000000E-01
                       4.33333333E-01  4.33333333E-01  1.50000000E-01
                       4.50000000E-01  4.50000000E-01  1.75000000E-01
                       4.66666667E-01  4.66666667E-01  2.00000000E-01
                       4.83333333E-01  4.83333333E-01  2.25000000E-01
                       5.00000000E-01  5.00000000E-01  2.50000000E-01
                       5.16666667E-01  5.16666667E-01  2.75000000E-01
                       5.33333333E-01  5.33333333E-01  3.00000000E-01
                       5.50000000E-01  5.50000000E-01  3.25000000E-01
                       5.66666667E-01  5.66666667E-01  3.50000000E-01
                       5.83333333E-01  5.83333333E-01  3.75000000E-01
                       6.00000000E-01  6.00000000E-01  4.00000000E-01
                       6.16666667E-01  6.16666667E-01  4.25000000E-01
                       6.33333333E-01  6.33333333E-01  4.50000000E-01
                       6.50000000E-01  6.50000000E-01  4.75000000E-01
                       6.66666667E-01  6.66666667E-01  5.00000000E-01
                       6.83333333E-01  6.83333333E-01  5.25000000E-01
                       7.00000000E-01  7.00000000E-01  5.50000000E-01
                       outvar_i_n : Printing only first  50 k-points.
           kptopt1          1
           kptopt2         -3
         kptrlatt        4    0    0      0    4    0      0    0    1
          kptrlen1     2.38876501E+01
          kptrlen2     3.00000000E+01
P           mkmem1         10
P           mkmem2         68
            natom           3
            nband1         14
            nband2          8
           nbdbuf1          0
           nbdbuf2          2
           ndtset           2
           ndivsm1          0
           ndivsm2         10
            ngfft          30      30     192
             nkpt1         10
             nkpt2         68
            nstep          20
             nsym           1
           ntypat           2
              occ      2.000000  2.000000  2.000000  2.000000  2.000000  2.000000
                       2.000000  2.000000  2.000000  2.000000  2.000000  2.000000
                       2.000000  0.000000
            rprim      5.0000000000E-01 -8.6602540378E-01  0.0000000000E+00
                       5.0000000000E-01  8.6602540378E-01  0.0000000000E+00
                       0.0000000000E+00  0.0000000000E+00  1.0000000000E+00
           shiftk1     0.00000000E+00  0.00000000E+00  5.00000000E-01
           shiftk2     5.00000000E-01  5.00000000E-01  5.00000000E-01
          spgroup           1
           toldfe1     1.00000000E-07 Hartree
           toldfe2     0.00000000E+00 Hartree
           tolwfr1     0.00000000E+00
           tolwfr2     1.00000000E-12
            typat      1  2  2
              wtk1       0.06250    0.12500    0.06250    0.12500    0.12500    0.12500
                         0.12500    0.06250    0.12500    0.06250
              wtk2       1.00000    1.00000    1.00000    1.00000    1.00000    1.00000
                         1.00000    1.00000    1.00000    1.00000    1.00000    1.00000
                         1.00000    1.00000    1.00000    1.00000    1.00000    1.00000
                         1.00000    1.00000    1.00000    1.00000    1.00000    1.00000
                         1.00000    1.00000    1.00000    1.00000    1.00000    1.00000
                         1.00000    1.00000    1.00000    1.00000    1.00000    1.00000
                         1.00000    1.00000    1.00000    1.00000    1.00000    1.00000
                         1.00000    1.00000    1.00000    1.00000    1.00000    1.00000
                         1.00000    1.00000
                       outvars : Printing only first  50 k-points.
           xangst      1.5801000000E+00  9.1227116034E-01  0.0000000000E+00
                       1.5801000000E+00 -9.1227116034E-01 -1.8388847000E+00
                       1.5801000000E+00 -9.1227116034E-01  1.8388847000E+00
            xcart      2.9859562626E+00  1.7239426520E+00  0.0000000000E+00
                       2.9859562626E+00 -1.7239426520E+00 -3.4749884730E+00
                       2.9859562626E+00 -1.7239426520E+00  3.4749884730E+00
             xred      3.3333333333E-01  6.6666666667E-01  0.0000000000E+00
                       6.6666666667E-01  3.3333333333E-01 -9.1944235000E-02
                       6.6666666667E-01  3.3333333333E-01  9.1944235000E-02
            znucl       42.00000   16.00000
 
================================================================================
 
 chkinp: Checking input parameters for consistency, jdtset=   1.
 
 chkinp: Checking input parameters for consistency, jdtset=   2.
 
================================================================================
== DATASET  1 ==================================================================
-   mpi_nproc: 1, omp_nthreads: -1 (-1 if OMP is not activated)
 

--- !DatasetInfo
iteration_state: {dtset: 1, }
dimensions: {natom: 3, nkpt: 10, mband: 14, nsppol: 1, nspinor: 1, nspden: 1, mpw: 9186, }
cutoff_energies: {ecut:  30.0, pawecutdg:  -1.0, }
electrons: {nelect:   2.60000000E+01, charge:   0.00000000E+00, occopt:   1.00000000E+00, tsmear:   1.00000000E-02, }
meta: {optdriver: 0, ionmov: 0, optcell: 0, iscf: 7, paral_kgb: 0, }
...

 Exchange-correlation functional for the present dataset will be:
  GGA: Perdew-Burke-Ernzerhof functional - ixc=11
 Citation for XC functional:
  J.P.Perdew, K.Burke, M.Ernzerhof, PRL 77, 3865 (1996)
 
 Real(R)+Recip(G) space primitive vectors, cartesian coordinates (Bohr,Bohr^-1):
 R(1)=  2.9859563 -5.1718280  0.0000000  G(1)=  0.1674505 -0.0966776  0.0000000
 R(2)=  2.9859563  5.1718280  0.0000000  G(2)=  0.1674505  0.0966776  0.0000000
 R(3)=  0.0000000  0.0000000 37.7945227  G(3)=  0.0000000  0.0000000  0.0264589
 Unit cell volume ucvol=  1.1673104E+03 bohr^3
 Angles (23,13,12)=  9.00000000E+01  9.00000000E+01  1.20000000E+02 degrees
 
 getcut: wavevector=  0.0000  0.0000  0.0000  ngfft=  30  30 192
         ecut(hartree)=     30.000   => boxcut(ratio)=   2.03894
 
--- Pseudopotential description ------------------------------------------------
- pspini: atom type   1  psp file is ../persudo/Mo.psp8
- pspatm: opening atomic psp file    ../persudo/Mo.psp8
- Mo    ONCVPSP-3.2.3.1  r_core=   1.45541   1.45541   1.35488
- 42.00000  14.00000    170510                znucl, zion, pspdat
    8   11    2    4       600   0.00000      pspcod,pspxc,lmax,lloc,mmax,r2well
    5.99000000000000    3.00000000000000    0.00000000000000   rchrg,fchrg,qchrg
     nproj     2     2     2
     extension_switch     1
  pspatm : epsatm=   15.95693586
         --- l  ekb(1:nproj) -->
             0   13.833287    1.350687
             1    8.015347    1.134034
             2    2.765699    0.969071
 pspatm: atomic psp has been read  and splines computed
 
- pspini: atom type   2  psp file is ../persudo/S.psp8
- pspatm: opening atomic psp file    ../persudo/S.psp8
- S     ONCVPSP-4.0.1  r_core=   1.45687   1.45687   1.45687
- 16.00000   6.00000    220131                znucl, zion, pspdat
    8   11    2    4       600   0.00000      pspcod,pspxc,lmax,lloc,mmax,r2well
    5.99000000000000    6.00000000000000    0.00000000000000   rchrg,fchrg,qchrg
     nproj     2     2     2
     extension_switch     1
  pspatm : epsatm=    9.04179351
         --- l  ekb(1:nproj) -->
             0    6.774234    0.542270
             1    3.022426    0.737017
             2   -5.033160   -1.531047
 pspatm: atomic psp has been read  and splines computed
 
   8.85053595E+02                                ecore*ucvol(ha*bohr**3)
--------------------------------------------------------------------------------
 
_setup2: Arith. and geom. avg. npw (full set) are    9161.875    9161.844
 
================================================================================

--- !BeginCycle
iteration_state: {dtset: 1, }
solver: {iscf: 7, nstep: 20, nline: 4, wfoptalg: 0, }
tolerances: {toldfe: 1.00E-07, }
...
 
     iter   Etot(hartree)      deltaE(h)  residm     vres2
 ETOT  1  -91.485002709126    -9.149E+01 9.572E-02 9.774E+03
 ETOT  2  -86.335414747955     5.150E+00 7.725E-02 9.474E+04
 ETOT  3  -92.210831301439    -5.875E+00 4.166E-02 2.384E+03
 ETOT  4  -92.311646105449    -1.008E-01 2.654E-02 9.357E+02
 ETOT  5  -92.328747224758    -1.710E-02 8.975E-04 5.275E+02
 ETOT  6  -92.333662412466    -4.915E-03 3.620E-04 3.661E+02
 ETOT  7  -92.339825459956    -6.163E-03 2.630E-04 1.635E+02
 ETOT  8  -92.341643066633    -1.818E-03 1.354E-04 9.512E+01
 ETOT  9  -92.342186203476    -5.431E-04 1.701E-04 7.170E+01
 ETOT 10  -92.342550682179    -3.645E-04 1.474E-04 5.405E+01
 ETOT 11  -92.342834967567    -2.843E-04 1.675E-04 3.681E+01
 ETOT 12  -92.342970248559    -1.353E-04 1.532E-04 2.043E+01
 ETOT 13  -92.342958511919     1.174E-05 1.484E-04 2.343E+01
 ETOT 14  -92.342951911269     6.601E-06 1.259E-04 2.310E+01
 ETOT 15  -92.342958800292    -6.889E-06 1.186E-04 2.162E+01
 ETOT 16  -92.342971259578    -1.246E-05 1.007E-04 1.869E+01
 ETOT 17  -92.342969430941     1.829E-06 9.015E-05 1.760E+01
 ETOT 18  -92.342971487909    -2.057E-06 7.412E-05 1.748E+01
 ETOT 19  -92.342987423987    -1.594E-05 6.510E-05 1.308E+01
 ETOT 20  -92.342985315760     2.108E-06 5.196E-05 1.373E+01
 
 Cartesian components of stress tensor (hartree/bohr^3)
  sigma(1 1)=  1.00797842E-04  sigma(3 2)= -2.38638735E-09
  sigma(2 2)=  1.00812430E-04  sigma(3 1)=  1.02687079E-09
  sigma(3 3)=  4.19084396E-04  sigma(2 1)=  1.01561706E-09
 
 
 scprqt:  WARNING -
  nstep=   20 was not enough SCF cycles to converge;
  maximum energy difference=  2.108E-06 exceeds toldfe=  1.000E-07
 

--- !ResultsGS
iteration_state: {dtset: 1, }
comment   : Summary of ground state results
lattice_vectors:
- [  2.9859563,  -5.1718280,   0.0000000, ]
- [  2.9859563,   5.1718280,   0.0000000, ]
- [  0.0000000,   0.0000000,  37.7945227, ]
lattice_lengths: [   5.97191,    5.97191,   37.79452, ]
lattice_angles: [ 90.000,  90.000, 120.000, ] # degrees, (23, 13, 12)
lattice_volume:   1.1673104E+03
convergence: {deltae:  2.108E-06, res2:  1.373E+01, residm:  5.196E-05, diffor: null, }
etotal    :  -9.23429853E+01
entropy   :   0.00000000E+00
fermie    :  -7.43682131E-02
cartesian_stress_tensor: # hartree/bohr^3
- [  1.00797842E-04,   1.01561706E-09,   1.02687079E-09, ]
- [  1.01561706E-09,   1.00812430E-04,  -2.38638735E-09, ]
- [  1.02687079E-09,  -2.38638735E-09,   4.19084396E-04, ]
pressure_GPa:  -6.0872E+00
xred      :
- [  3.3333E-01,   6.6667E-01,   0.0000E+00, Mo]
- [  6.6667E-01,   3.3333E-01,  -9.1944E-02,  S]
- [  6.6667E-01,   3.3333E-01,   9.1944E-02,  S]
cartesian_forces: # hartree/bohr
- [  1.08104292E-06,  -8.14897041E-07,  -6.15638769E-06, ]
- [  1.55943843E-07,  -2.05983811E-06,   6.91696817E-02, ]
- [ -1.23698676E-06,   2.87473515E-06,  -6.91635253E-02, ]
force_length_stats: {min:   6.30347685E-06, max:   6.91696818E-02, mean:   4.61131702E-02, }
...

 Integrated electronic density in atomic spheres:
 ------------------------------------------------
 Atom  Sphere_radius  Integrated_density
    1        2.00000         10.42780858
    2        2.00000          3.80509648
    3        2.00000          3.80510267
================================================================================
 
 ----iterations are completed or convergence reached----
 
 Mean square residual over all n,k,spin=   44.678E-08; max=  51.963E-06
 reduced coordinates (array xred) for    3 atoms
       0.333333333333      0.666666666667      0.000000000000
       0.666666666667      0.333333333333     -0.091944235000
       0.666666666667      0.333333333333      0.091944235000
 rms dE/dt=  1.2323E+00; max dE/dt=  2.6140E+00; dE/dt below (all hartree)
    1      -0.000002942638      0.000001238882      0.000210571081
    2      -0.000006618953      0.000010439809     -2.614257209855
    3       0.000023061041     -0.000010921725      2.613980318815
 
 cartesian coordinates (angstrom) at end:
    1      1.58010000000000     0.91227116034185     0.00000000000000
    2      1.58010000000000    -0.91227116034185    -1.83888470000000
    3      1.58010000000000    -0.91227116034185     1.83888470000000
 
 cartesian forces (hartree/bohr) at end:
    1      0.00000108104292    -0.00000081489704    -0.00000615638769
    2      0.00000015594384    -0.00000205983811     0.06916968172551
    3     -0.00000123698676     0.00000287473515    -0.06916352533782
 frms,max,avg= 3.2605450E-02 6.9169682E-02  -7.957E-07  4.106E-07  5.849E-07 h/b
 
 cartesian forces (eV/Angstrom) at end:
    1      0.00005558945732    -0.00004190368713    -0.00031657415701
    2      0.00000801895413    -0.00010592112548     3.55684774467536
    3     -0.00006360841145     0.00014782481261    -3.55653117051835
 frms,max,avg= 1.6766395E+00 3.5568477E+00  -4.092E-05  2.112E-05  3.008E-05 e/A
 length scales=  5.971912525145  5.971912525145 37.794522657713 bohr
              =  3.160200000000  3.160200000000 20.000000000000 angstroms
 prteigrs : about to open file mos2_1o_DS1_EIG
 Fermi (or HOMO) energy (hartree) =  -0.07437   Average Vxc (hartree)=  -0.15013
 Eigenvalues (hartree) for nkpt=  10  k points:
 kpt#   1, nband= 14, wtk=  0.06250, kpt=  0.0000  0.0000  0.5000 (reduced coord)
  -2.30694   -1.35494   -1.34423   -1.34422   -0.56047   -0.53693   -0.25257   -0.15228
  -0.11422   -0.11422   -0.09741   -0.07994   -0.07994    0.02305
 prteigrs : prtvol=0 or 1, do not print more k-points.
 

--- !EnergyTerms
iteration_state     : {dtset: 1, }
comment             : Components of total free energy in Hartree
kinetic             :  2.95591012069727E+01
hartree             :  2.64637844779017E+02
xc                  : -1.64376577321426E+01
Ewald energy        :  1.88027187438287E+02
psp_core            :  7.58198985105847E-01
local_psp           : -5.70443818113786E+02
non_local_psp       :  1.15561581207860E+01
total_energy        : -9.23429853157597E+01
total_energy_eV     : -2.51278042020548E+03
band_energy         : -1.69186838503299E+01
...

 
 Cartesian components of stress tensor (hartree/bohr^3)
  sigma(1 1)=  1.00797842E-04  sigma(3 2)= -2.38638735E-09
  sigma(2 2)=  1.00812430E-04  sigma(3 1)=  1.02687079E-09
  sigma(3 3)=  4.19084396E-04  sigma(2 1)=  1.01561706E-09
 
-Cartesian components of stress tensor (GPa)         [Pressure= -6.0872E+00 GPa]
- sigma(1 1)=  2.96557441E+00  sigma(3 2)= -7.02099280E-05
- sigma(2 2)=  2.96600359E+00  sigma(3 1)=  3.02115767E-05
- sigma(3 3)=  1.23298865E+01  sigma(2 1)=  2.98804804E-05
 
================================================================================
== DATASET  2 ==================================================================
-   mpi_nproc: 1, omp_nthreads: -1 (-1 if OMP is not activated)
 

--- !DatasetInfo
iteration_state: {dtset: 2, }
dimensions: {natom: 3, nkpt: 68, mband: 8, nsppol: 1, nspinor: 1, nspden: 1, mpw: 9256, }
cutoff_energies: {ecut:  30.0, pawecutdg:  -1.0, }
electrons: {nelect:   2.60000000E+01, charge:   0.00000000E+00, occopt:   1.00000000E+00, tsmear:   1.00000000E-02, }
meta: {optdriver: 0, ionmov: 0, optcell: 0, iscf: -2, paral_kgb: 0, }
...

 mkfilename : getden/=0, take file _DEN from output of DATASET   1.
 
 Exchange-correlation functional for the present dataset will be:
  GGA: Perdew-Burke-Ernzerhof functional - ixc=11
 Citation for XC functional:
  J.P.Perdew, K.Burke, M.Ernzerhof, PRL 77, 3865 (1996)
 
 Real(R)+Recip(G) space primitive vectors, cartesian coordinates (Bohr,Bohr^-1):
 R(1)=  2.9859563 -5.1718280  0.0000000  G(1)=  0.1674505 -0.0966776  0.0000000
 R(2)=  2.9859563  5.1718280  0.0000000  G(2)=  0.1674505  0.0966776  0.0000000
 R(3)=  0.0000000  0.0000000 37.7945227  G(3)=  0.0000000  0.0000000  0.0264589
 Unit cell volume ucvol=  1.1673104E+03 bohr^3
 Angles (23,13,12)=  9.00000000E+01  9.00000000E+01  1.20000000E+02 degrees
 
 getcut: wavevector=  0.0000  0.0000  0.0000  ngfft=  30  30 192
         ecut(hartree)=     30.000   => boxcut(ratio)=   2.03894
--------------------------------------------------------------------------------
 
 
================================================================================
